<?xml version="1.0"?>
<VTKFile type="UnstructuredGrid"  version="0.1"  >
<UnstructuredGrid>
<Piece  NumberOfPoints="433" NumberOfCells="749">
<Points>
<DataArray  type="Float64"  NumberOfComponents="3"  format="ascii">-0.075 0 0  -0.09 0 0  0 0.075 0  0 0.09 0  -0.07749999999999639 0 0  -0.07999999999998646 0 0  -0.08249999999998103 0 0  -0.08499999999998645 0 0  -0.08749999999999278 0 0  0 0.07749999999999639 0  0 0.07999999999998646 0  0 0.08249999999998103 0  0 0.08499999999998645 0  0 0.08749999999999278 0  -0.07495811727955622 0.002506123281942567 0  -0.07483251589590675 0.005009447543278963 0  -0.07462333612987612 0.007507176889318996 0  -0.07433081160842164 0.009996521676729792 0  -0.07395526904393597 0.01247470162525118 0  -0.07349712786972563 0.01493894892223676 0  -0.07295689977144719 0.01738651131593137 0  -0.07233518811456828 0.01981465519331636 0  -0.07163268727188714 0.02222066862648416 0  -0.07085018184678903 0.02460186440652264 0  -0.06998854579968822 0.02695558303663536 0  -0.0690487414675645 0.02927919571548095 0  -0.06803181849229657 0.03157010726353671 0  -0.06693891264673305 0.03382575902582295 0  -0.06577124456777726 0.03604363172608484 0  -0.06453011839127269 0.03822124828427676 0  -0.06321692029677325 0.04035617658043708 0  -0.06183311695969129 0.04244603217085358 0  -0.06038025391035727 0.04448848095542019 0  -0.05885995380997007 0.04648124178083229 0  -0.05727391464708927 0.04842208897804733 0  -0.05562390781984606 0.05030885487515362 0  -0.05391177617736313 0.05213943219293725 0  -0.05213943196064988 0.05391177640201408 0  -0.05030885464501876 0.05562390802799076 0  -0.04842208875339741 0.05727391483701899 0  -0.04648124156111814 0.05885995398347661 0  -0.04448848075057723 0.06038025406128662 0  -0.04244603197180736 0.06183311709632879 0  -0.04035617638849847 0.06321692041930228 0  -0.03822124809864088 0.06453011850122499 0  -0.0360436315504515 0.06577124466402698 0  -0.03382575884828561 0.0669389127364467 0  -0.03157010709491195 0.06803181857054676 0  -0.02927919555367265 0.06904874153617714 0  -0.02695558288636049 0.0699885458575655 0  -0.02460186426453365 0.07085018189609299 0  -0.02222066850172165 0.07163268731058885 0  -0.01981465508202493 0.07233518814505416 0  -0.01738651122047044 0.07295689979419667 0  -0.01493894883901457 0.07349712788664128 0  -0.01247470156079826 0.07395526905480783 0  -0.009996521626141067 0.07433081161522517 0  -0.007507176851571576 0.07462333613367354 0  -0.005009447516060501 0.07483251589772881 0  -0.002506123268183811 0.07495811728001622 0  -0.0899645963742958 0.002524163071205547 0  -0.08985841335089052 0.005046340264042189 0  -0.08968153446904799 0.007564547261862569 0  -0.08943409888777125 0.01007680287255576 0  -0.08911630127597117 0.01258113058871627 0  -0.08872839166019254 0.01507556013538031 0  -0.08827067522730371 0.01755812902663218 0  -0.08774351208429579 0.02002688410894299 0  -0.08714731697549832 0.02247988309515903 0  -0.08648255895550024 0.02491519609612614 0  -0.08574976102062974 0.0273309071365164 0  -0.0849494996983149 0.02972511566009441 0  -0.08408240459276443 0.03209593802802249 0  -0.08314915788532473 0.03444150901109495 0  -0.08215049380893638 0.03675998322834083 0  -0.08108719805771389 0.03904953663168204 0  -0.07996010717904113 0.04130836791639497 0  -0.07877010790633669 0.04353469995789643 0  -0.07751813646875386 0.04572678119452155 0  -0.07620517784835112 0.04788288701719196 0  -0.07483226501559699 0.05000132110890126 0  -0.07340047810466495 0.05208041679947078 0  -0.07191094357237759 0.05411853836284126 0  -0.07036483330343213 0.05611408231611922 0  -0.06876336369699096 0.05806547866913129 0  -0.06710779470294803 0.05997119216846514 0  -0.06539942883595723 0.06182972349873934 0  -0.06363961015120059 0.06363961046237793 0  -0.06182972319003133 0.065399429127815 0  -0.05997119186647147 0.06710779497282608 0  -0.05806547837541865 0.06876336394500916 0  -0.05611408202852537 0.07036483353278059 0  -0.05411853808512605 0.07191094378137974 0  -0.05208041652753923 0.07340047829761066 0  -0.05000132084351008 0.07483226519292571 0  -0.04788288675993079 0.07620517800999904 0  -0.04572678094644674 0.07751813661508945 0  -0.04353469971974386 0.07877010803795897 0  -0.04130836768323542 0.07996010729949422 0  -0.03904953640937208 0.08108719816477272 0  -0.03675998301634555 0.08215049390379818 0  -0.03444150881343844 0.08314915796719675 0  -0.03209593784904181 0.08408240466108496 0  -0.02972511549084878 0.08494949975753653 0  -0.02733090698523612 0.08574976106884712 0  -0.02491519595432643 0.08648255899635204 0  -0.02247988297258634 0.08714731700711628 0  -0.02002688399922625 0.08774351210933794 0  -0.01755812893234683 0.08827067524605826 0  -0.0150755600588864 0.0887283916731894 0  -0.0125811305237414 0.08911630128514413 0  -0.01007680282539007 0.08943409889308557 0  -0.007564547219350083 0.08968153447263388 0  -0.005046340237807586 0.08985841335236384 0  -0.002524163055248866 0.08996459637474352 0  -0.02638495842597087 0.07230431635354724 0  -0.0724577439499985 0.02652492242708277 0  -0.03820861825336661 0.06692469090417869 0  -0.06696516331047203 0.03813917166699644 0  -0.01405844856432208 0.07588144705676292 0  -0.07586687301989076 0.01403253024520789 0  -0.04924696735161161 0.05974614252237344 0  -0.06021958411766227 0.04897686669376328 0  -0.05441272986917846 0.05492262075115664 0  -0.00844934112920359 0.0873244178471272 0  -0.08729789229900929 0.008464129946291274 0  -0.04970250625639185 0.07250192633458045 0  -0.07225782505680187 0.04986880053115327 0  -0.02296277068007322 0.08486486284184186 0  -0.08488692372186042 0.0231226822119872 0  -0.03698391859303625 0.0796360346367147 0  -0.07972474870226534 0.0369892874805849 0  -0.05940869453503514 0.06453221453772266 0  -0.06490206229372125 0.05928808861035652 0  -0.008981178664023997 0.07662539604324109 0  -0.07664595922227485 0.008958121299613531 0  -0.04258816427365257 0.06434477530512171 0  -0.06428715446119834 0.04252382049424455 0  -0.02162604536010116 0.07406760646907401 0  -0.07397451969612889 0.02135682807509871 0  -0.03138408360305744 0.07050614139179145 0  -0.07048589876008068 0.03115502976771903 0  -0.01598032769589888 0.08617825082311938 0  -0.08660024321334667 0.0160894102045897 0  -0.04331010890544199 0.07643174923285871 0  -0.07609327348337597 0.04334023680275891 0  -0.03051788553280029 0.08257098137643742 0  -0.08271310263132355 0.03026971043274087 0  -0.05375736240702735 0.06951197410995086 0  -0.06920756519403341 0.054087928802809 0  -0.08136110420648507 0.002100918817116135 0  -0.002104074538917174 0.08135563831841353 0  -0.002107394087757469 0.08614851770253515 0  -0.08614851770346527 0.002107394088979892 0  -0.003871489049976906 0.07698495052014692 0  -0.0769910397421079 0.00385948776992385 0  -0.07688728881086862 0.00640286972707272 0  -0.07893649500296317 0.007888228365438177 0  -0.07864915707867078 0.01047250004881588 0  -0.08094391562081626 0.009443774315006905 0  -0.08069474783762076 0.01195513673789902 0  -0.08297737961670854 0.01093176429149574 0  -0.08128219298667763 0.006578873604308153 0  -0.08275172677495995 0.01332485777152258 0  -0.08047461461893209 0.01442075193384382 0  -0.08250281832103598 0.01582503173333389 0  -0.0801798508992084 0.01692288022570923 0  -0.08227846703149519 0.01838558084864741 0  -0.08000649587631861 0.01941806405126648 0  -0.07784981364433481 0.01797321471140479 0  -0.07781688244144731 0.02047032659290448 0  -0.07979595102222629 0.02191953152403004 0  -0.07761550638135029 0.02297190650657709 0  -0.07956654754963287 0.02442216777099992 0  -0.07729568064420198 0.02544299754927018 0  -0.07925671812803066 0.0269148247247648 0  -0.07691229579790623 0.02785633329464377 0  -0.08148429307162043 0.0260605848752796 0  -0.08500496268260241 0.01220291849691744 0  -0.07899342881414922 0.02945319057611401 0  -0.07677368992600604 0.03047081008665916 0  -0.07875567804452421 0.03201256652717756 0  -0.07652114920627114 0.03298900563087183 0  -0.07448390588478056 0.0315143000719238 0  -0.07425747655082893 0.03405756216124611 0  -0.07617998602782436 0.03547827613122414 0  -0.07399974060085804 0.03652227476182263 0  -0.07591872554930332 0.0379739798393865 0  -0.07376278025185565 0.03902849314151225 0  -0.07195315437546659 0.03505995835630459 0  -0.07583275830085115 0.01946939609326507 0  -0.07580535264791899 0.04049055758758097 0  -0.07368014209012524 0.0416997122716355 0  -0.07358528653236289 0.04429701585170327 0  -0.07141024741087292 0.0429192176828169 0  -0.07134440097214217 0.04546771052721902 0  -0.06916083076124513 0.04416617039648697 0  -0.06913992148127565 0.04669256602398839 0  -0.06700307365663324 0.04547199862024669 0  -0.06697698678154426 0.04798053919417636 0  -0.06442612578036658 0.04672965622075619 0  -0.06479460701302922 0.04923275855856989 0  -0.06940145869271838 0.04164632533082279 0  -0.0669041093304743 0.05049050832231084 0  -0.06476708434368587 0.05174544501325212 0  -0.0626053304774315 0.05050076480458388 0  -0.06258716802991651 0.05299425501099465 0  -0.06475761419610929 0.05426406870473277 0  -0.06257035798967708 0.05550636916968502 0  -0.06040115361718552 0.05423297582802825 0  -0.06038269812542003 0.05674715519414873 0  -0.05828284087882953 0.05556142732023424 0  -0.05820587586405271 0.05800288707589824 0  -0.06044363154687012 0.05938551944493032 0  -0.05816988287279336 0.0604906765951877 0  -0.05600706511047171 0.05922913984327231 0  -0.05596508768050693 0.06170602455294535 0  -0.05381763137757934 0.06046850448334422 0  -0.05379901176280132 0.06297793096447361 0  -0.05642039378601944 0.06436433979103269 0  -0.05379899974755759 0.06542325021849027 0  -0.05158214200919133 0.06408958772660185 0  -0.05152115554309931 0.06660183035856777 0  -0.04940393230392151 0.06542027135813852 0  -0.04935511480283617 0.067904794189971 0  -0.04717032355644686 0.06669497789703963 0  -0.04716018009828919 0.06915341254143532 0  -0.04498321112258373 0.06795037291047179 0  -0.0449996171019548 0.07044872070718851 0  -0.04273576573207716 0.069227277
[...]
<PointData  Vectors="f_72"> 
<DataArray  type="Float64"  Name="f_72"  NumberOfComponents="3" format="ascii">-6.1048391293706803e-05 0.0000000000000000e+00 0.0000000000000000e+00  -5.5734827058847378e-05 0.0000000000000000e+00 0.0000000000000000e+00  0.0000000000000000e+00 6.1174677972111673e-05 0.0000000000000000e+00  0.0000000000000000e+00 5.5861144822255431e-05 0.0000000000000000e+00  -5.9950656329184523e-05 0.0000000000000000e+00 0.0000000000000000e+00  -5.8944546525095413e-05 0.0000000000000000e+00 0.0000000000000000e+00  -5.8029455993506263e-05 0.0000000000000000e+00 0.0000000000000000e+00  -5.7193294037613776e-05 0.0000000000000000e+00 0.0000000000000000e+00  -5.6433076292798732e-05 0.0000000000000000e+00 0.0000000000000000e+00  0.0000000000000000e+00 6.0076792694208659e-05 0.0000000000000000e+00  0.0000000000000000e+00 5.9070806812086482e-05 0.0000000000000000e+00  0.0000000000000000e+00 5.8155531845794342e-05 0.0000000000000000e+00  0.0000000000000000e+00 5.7319422353558842e-05 0.0000000000000000e+00  0.0000000000000000e+00 5.6559322280939462e-05 0.0000000000000000e+00  -6.1022392358718757e-05 2.0495949635771859e-06 0.0000000000000000e+00  -6.0900783326451456e-05 4.0900942657735993e-06 0.0000000000000000e+00  -6.0730983042007486e-05 6.1237931901100768e-06 0.0000000000000000e+00  -6.0495236816335425e-05 8.1488280897976479e-06 0.0000000000000000e+00  -6.0190988746762678e-05 1.0164832309096108e-05 0.0000000000000000e+00  -5.9809231062392211e-05 1.2166781540309195e-05 0.0000000000000000e+00  -5.9386213962661577e-05 1.4154375205058224e-05 0.0000000000000000e+00  -5.8867881174826917e-05 1.6160356091255049e-05 0.0000000000000000e+00  -5.8284365764534172e-05 1.8113058895780499e-05 0.0000000000000000e+00  -5.7653043825671538e-05 2.0055739142927427e-05 0.0000000000000000e+00  -5.6958770797031283e-05 2.1968009624535456e-05 0.0000000000000000e+00  -5.6203963107379185e-05 2.3866764951669622e-05 0.0000000000000000e+00  -5.5366182934503556e-05 2.5734896237789310e-05 0.0000000000000000e+00  -5.4481747705597302e-05 2.7563336212230508e-05 0.0000000000000000e+00  -5.3528888492089593e-05 2.9374925585612709e-05 0.0000000000000000e+00  -5.2516008289517615e-05 3.1151636271947917e-05 0.0000000000000000e+00  -5.1444531008817393e-05 3.2895146029134805e-05 0.0000000000000000e+00  -5.0326143173917294e-05 3.4607011839180070e-05 0.0000000000000000e+00  -4.9145252095480712e-05 3.6271631911875384e-05 0.0000000000000000e+00  -4.7907650251789412e-05 3.7897854932734734e-05 0.0000000000000000e+00  -4.6620087048258519e-05 3.9463266704508438e-05 0.0000000000000000e+00  -4.5284050533084731e-05 4.1010794387545790e-05 0.0000000000000000e+00  -4.3885985489332308e-05 4.2511102185770730e-05 0.0000000000000000e+00  -4.2457437594460454e-05 4.3958245706614412e-05 0.0000000000000000e+00  -4.0963146782399563e-05 4.5357631660276337e-05 0.0000000000000000e+00  -3.9418208732515675e-05 4.6729294210322052e-05 0.0000000000000000e+00  -3.7838807237097011e-05 4.8004325833415767e-05 0.0000000000000000e+00  -3.6223104643904946e-05 4.9245253654635579e-05 0.0000000000000000e+00  -3.4565937337542624e-05 5.0433791222694144e-05 0.0000000000000000e+00  -3.2867316882427188e-05 5.1562714371643327e-05 0.0000000000000000e+00  -3.1128138686578366e-05 5.2635571213311772e-05 0.0000000000000000e+00  -2.9355094607989844e-05 5.3650263367317751e-05 0.0000000000000000e+00  -2.7548660613053472e-05 5.4605711857262247e-05 0.0000000000000000e+00  -2.5710443259848473e-05 5.5493580910101569e-05 0.0000000000000000e+00  -2.3848343783101354e-05 5.6324642992068042e-05 0.0000000000000000e+00  -2.1964597894422945e-05 5.7084526757014294e-05 0.0000000000000000e+00  -2.0036752130635404e-05 5.7789710523150046e-05 0.0000000000000000e+00  -1.8091517225669958e-05 5.8432813485502321e-05 0.0000000000000000e+00  -1.6133253730048155e-05 5.9005416243854964e-05 0.0000000000000000e+00  -1.4167508616587196e-05 5.9504443278699667e-05 0.0000000000000000e+00  -1.2173865251761100e-05 5.9943187100060141e-05 0.0000000000000000e+00  -1.0167993254822997e-05 6.0315182760853076e-05 0.0000000000000000e+00  -8.1492551837442639e-06 6.0620163134534444e-05 0.0000000000000000e+00  -6.1236516905830748e-06 6.0857149264471853e-05 0.0000000000000000e+00  -4.0892631839429560e-06 6.1026830360222342e-05 0.0000000000000000e+00  -2.0496373683192733e-06 6.1148793939681622e-05 0.0000000000000000e+00  -5.5714813646728804e-05 1.5615265380539839e-06 0.0000000000000000e+00  -5.5647011058163334e-05 3.1318620044632273e-06 0.0000000000000000e+00  -5.5532592210355193e-05 4.6801934858168579e-06 0.0000000000000000e+00  -5.5369841653327712e-05 6.2436889388747296e-06 0.0000000000000000e+00  -5.5173579619541648e-05 7.7971328800156609e-06 0.0000000000000000e+00  -5.4932501286597256e-05 9.3464925928994385e-06 0.0000000000000000e+00  -5.4651155497828029e-05 1.0886065045157161e-05 0.0000000000000000e+00  -5.4332221595903595e-05 1.2415609638086268e-05 0.0000000000000000e+00  -5.3970579018322939e-05 1.3936658621355288e-05 0.0000000000000000e+00  -5.3550041101861817e-05 1.5448903527825798e-05 0.0000000000000000e+00  -5.3088445535635800e-05 1.6950618777430877e-05 0.0000000000000000e+00  -5.2590451956093145e-05 1.8439460257948399e-05 0.0000000000000000e+00  -5.2056750049001733e-05 1.9908862106686928e-05 0.0000000000000000e+00  -5.1484493760564509e-05 2.1354153016480762e-05 0.0000000000000000e+00  -5.0873321675866810e-05 2.2790177197182177e-05 0.0000000000000000e+00  -5.0208153979917471e-05 2.4205426988271901e-05 0.0000000000000000e+00  -4.9513512483697696e-05 2.5618183023218134e-05 0.0000000000000000e+00  -4.8780648009323403e-05 2.6987954729190092e-05 0.0000000000000000e+00  -4.8003880763516205e-05 2.8352553288720458e-05 0.0000000000000000e+00  -4.7197074105900855e-05 2.9682973704191723e-05 0.0000000000000000e+00  -4.6355955482569305e-05 3.0992889542080306e-05 0.0000000000000000e+00  -4.5463424809069989e-05 3.2282236817359912e-05 0.0000000000000000e+00  -4.4541867231314240e-05 3.3552269489805722e-05 0.0000000000000000e+00  -4.3591756360781850e-05 3.4801784647271847e-05 0.0000000000000000e+00  -4.2608097310496577e-05 3.5994605708957025e-05 0.0000000000000000e+00  -4.1587069895054439e-05 3.7177397203531080e-05 0.0000000000000000e+00  -4.0524803042630088e-05 3.8332561618790046e-05 0.0000000000000000e+00  -3.9434949097788299e-05 3.9470289209686120e-05 0.0000000000000000e+00  -3.8324492648714108e-05 4.0554988378498883e-05 0.0000000000000000e+00  -3.7173439858597541e-05 4.1625092880203754e-05 0.0000000000000000e+00  -3.5993618713274739e-05 4.2652714552884741e-05 0.0000000000000000e+00  -3.4791130366566236e-05 4.3644751709059729e-05 0.0000000000000000e+00  -3.3549412286354857e-05 4.4603726718466531e-05 0.0000000000000000e+00  -3.2288105976769535e-05 4.5535262988997106e-05 0.0000000000000000e+00  -3.0999963664043914e-05 4.6429346773648044e-05 0.0000000000000000e+00  -2.9686719624165148e-05 4.7287288716240778e-05 0.0000000000000000e+00  -2.8347010879235641e-05 4.8102480740236676e-05 0.0000000000000000e+00  -2.6986377304418373e-05 4.8886964095170971e-05 0.0000000000000000e+00  -2.5607321788337168e-05 4.9635598629698270e-05 0.0000000000000000e+00  -2.4209447150212871e-05 5.0331284178612272e-05 0.0000000000000000e+00  -2.2778554411925482e-05 5.0983374209189402e-05 0.0000000000000000e+00  -2.1347624372472267e-05 5.1615504784432122e-05 0.0000000000000000e+00  -1.9902978495078715e-05 5.2191851943622157e-05 0.0000000000000000e+00  -1.8434746057627382e-05 5.2723460236992536e-05 0.0000000000000000e+00  -1.6938237584787530e-05 5.3221646933335818e-05 0.0000000000000000e+00  -1.5442188748898078e-05 5.3684139776602933e-05 0.0000000000000000e+00  -1.3936356847580895e-05 5.4100834663531603e-05 0.0000000000000000e+00  -1.2414404864748074e-05 5.4468096177887737e-05 0.0000000000000000e+00  -1.0879738418099238e-05 5.4791772706832965e-05 0.0000000000000000e+00  -9.3354839631506416e-06 5.5068634320981227e-05 0.0000000000000000e+00  -7.7934582991044244e-06 5.5301884582509792e-05 0.0000000000000000e+00  -6.2428408050327762e-06 5.5493563897710013e-05 0.0000000000000000e+00  -4.6804480774076117e-06 5.5658437760074217e-05 0.0000000000000000e+00  -3.1321811415526936e-06 5.5772930069775821e-05 0.0000000000000000e+00  -1.5618126285520665e-06 5.5841148310972264e-05 0.0000000000000000e+00  -2.0638190703118933e-05 5.6647518545419502e-05 0.0000000000000000e+00  -5.6419962836054582e-05 2.0678450212226827e-05 0.0000000000000000e+00  -2.9832547957228642e-05 5.2332044452693310e-05 0.0000000000000000e+00  -5.2242970316772452e-05 2.9797639511296498e-05 0.0000000000000000e+00  -1.0958470618492909e-05 5.9201701173349706e-05 0.0000000000000000e+00  -5.9085170160593048e-05 1.0942126485597342e-05 0.0000000000000000e+00  -3.8162677419232950e-05 4.6374832870466923e-05 0.0000000000000000e+00  -4.6471255180752352e-05 3.7851980987389879e-05 0.0000000000000000e+00  -4.2254763027335033e-05 4.2719446996128129e-05 0.0000000000000000e+00  -5.4277204317481103e-06 5.6215045778221515e-05 0.0000000000000000e+00  -5.6095867517071462e-05 5.4393591285819175e-06 0.0000000000000000e+00  -3.1874019149619987e-05 4.6535539139263223e-05 0.0000000000000000e+00  -4.6375156075145804e-05 3.2034710837361431e-05 0.0000000000000000e+00  -1.4719948204123467e-05 5.4484647487945640e-05 0.0000000000000000e+00  -5.4313129372236651e-05 1.4812285675911258e-05 0.0000000000000000e+00  -2.3754539390574401e-05 5.1212340248240353e-05 0.0000000000000000e+00  -5.1075674806871068e-05 2.3732643673285786e-05 0.0000000000000000e+00  -3.8204450045353247e-05 4.1531465288724094e-05 0.0000000000000000e+00  -4.1598663447551905e-05 3.8029519236357813e-05 0.0000000000000000e+00  -7.0069970317908695e-06 5.9805886032406909e-05 0.0000000000000000e+00  -5.9675020461595079e-05 6.9869818305878160e-06 0.0000000000000000e+00  -3.3184708646004622e-05 5.0214005011601584e-05 0.0000000000000000e+00  -5.0146859299297744e-05 3.3212165803868661e-05 0.0000000000000000e+00  -1.6852877542990704e-05 5.7808741501985219e-05 0.0000000000000000e+00  -5.7785312649755474e-05 1.6711427355409127e-05 0.0000000000000000e+00  -2.4457163269047746e-05 5.5013777271085362e-05 0.0000000000000000e+00  -5.4997769315344694e-05 2.4340671967569676e-05 0.0000000000000000e+00  -1.0291780557127978e-05 5.5563716027270451e-05 0.0000000000000000e+00  -5.5302538200682175e-05 1.0289289368803349e-05 0.0000000000000000e+00  -2.7796941956682552e-05 4.9113411580391217e-05 0.0000000000000000e+00  -4.9009916342528723e-05 2.7948786898828037e-05 0.0000000000000000e+00  -1.9525464509466953e-05 5.2905970063776894e-05 0.0000000000000000e+00  -5.2820211512091864e-05 1.9361891589145161e-05 0.0000000000000000e+00  -3.4485826065711893e-05 4.4626996748465269e-05 0.0000000000000000e+00  -4.4399920182152039e-05 3.4730958200792591e-05 0.0000000000000000e+00  -5.8402748756230345e-05 1.5061535064995375e-06 0.0000000000000000e+00  -1.5088178110077842e-06 5.8530991337666874e-05 0.0000000000000000e+00  -1.3898436822180905e-06 5.6931307435903430e-05 0.0000000000000000e+00  -5.6805158178333810e-05 1.3900093891197852e-06 0.0000000000000000e+00  -3.0307232369938035e-06 6.0166800129270240e-05 0.0000000000000000e+00  -6.0037864347084921e-05 3.0204900013222551e-06 0.0000000000000000e+00  -5.9876760654639801e-05 4.9985233888029976e-06 0.0000000000000000e+00  -5.8902791309917927e-05 5.8930496585405227e-06 0.0000000000000000e+00  -5.8675011717051235e-05 7.8230806033571164e-06 0.0000000000000000e+00  -5.7987925772130253e-05 6.7744816951267554e-06 0.0000000000000000e+00  -5.7718726029634638e-05 8.5616150515472968e-06 0.0000000000000000e+00  -5.7114799175535254e-05 7.5345939480454657e-06 0.0000000000000000e+00  -5.8170185030854083e-05 4.7149594114010362e-06 0.0000000000000000e+00  -5.6835282369031471e-05 9.1636671197050659e-06 0.0000000000000000e+00  -5.7366583419056548e-05 1.0294027222064667e-05 0.0000000000000000e+00  -5.6474513961673719e-05 1.0846059052407542e-05 0.0000000000000000e+00  -5.6959208629381615e-05 1.2040270972554668e-05 0.0000000000000000e+00  -5.6028578157698250e-05 1.2534653007521726e-05 0.0000000000000000e+00  -5.6446362448969432e-05 1.3717179001181485e-05 0.0000000000000000e+00  -5.7463191094125639e-05 1.3286923601931285e-05 0.0000000000000000e+00  -5.6831589427263412e-05 1.4964393140711056e-05 0.0000000000000000e+00  -5.5868308980017361e-05 1.5365510683174848e-05 0.0000000000000000e+00  -5.6172750398446503e-05 1.6635811202395478e-05 0.0000000000000000e+00  -5.5222261166415257e-05 1.6965506469160103e-05 0.0000000000000000e+00  -5.5487221066570932e-05 1.8278393512181564e-05 0.0000000000000000e+00  -5.4545286054873752e-05 1.8539437392511004e-05 0.0000000000000000e+00  -5.4781315941867628e-05 1.9859206109102009e-05 0.0000000000000000e+00  -5.4301337354689581e-05 1.7388582958048039e-05 0.0000000000000000e+00  -5.6328258474212350e-05 8.0951489953908030e-06 0.0000000000000000e+00  -5.3787979545537401e-05 2.0077075444626794e-05 0.0000000000000000e+00  -5.3896540538960665e-05 2.1416093934688552e-05 0.0000000000000000e+00  -5.2972545921783345e-05 2.1558535904697720e-05 0.0000000000000000e+00  -5.3016742858982839e-05 2.2882661804230953e-05 0.0000000000000000e+00  -5.3971459205432559e-05 2.2858563695892051e-05 0.0000000000000000e+00  -5.2997858846272665e-05 2.4331566461054490e-05 0.0000000000000000e+00  -5.2122636393313528e-05 2.4298971366130330e-05 0.0000000000000000e+00  -5.2026108285492992e-05 2.5706416327313421e-05 0.0000000000000000e+00  -5.1178416456119776e-05 2.5630705528065871e-05 0.0000000000000000e+00  -5.0993048888592276e-05 2.7014062931712022e-05 0.0000000000000000e+00  -5.2972330226318377e-05 2.5843559599782948e-05 0.0000000000000000e+00  -5.7732270909456295e-05 1.4839956004480858e-05 0.0000000000000000e+00  -5.0176819681228934e-05 2.6836318856288593e-05 0.0000000000000000e+00  -4.9860821285640624e-05 2.8256152517395155e-05 0.0000000000000000e+00  -4.8753676836034192e-05 2.9383880449446294e-05 0.0000000000000000e+00  -4.9486538063753011e-05 2.9781216053228617e-05 0.0000000000000000e+00  -4.8336131381798364e-05 3.0843576760674603e-05 0.0000000000000000e+00  -4.9032508734265239e-05 3.1353456703197588e-05 0.0000000000000000e+00  -4.7820220342283644e-05 3.2335514149589922e-05 0.0000000000000000e+00  -4.8461483559717600e-05 3.2934647208597886e-05 0.0000000000000000e+00  -4.7203479188179203e-05 3.3857592225560507e-05 0.0000000000000000e+00  -4.7838788233131156e-05 3.4748191659846393e-05 0.0000000000000000e+00  -4.6519186563532987e-05 3.5400401069580128e-05 0.0000000000000000e+00  -5.0229810839576115e-05 3.0179401966105001e-05 0.0000000000000000e+00  -4.5958322044789859e-05 3.4726950004035717e-05 0.0000000000000000e+00  -4.5232065139340235e-05 3.6187276149999295e-05 0.0000000000000000e+00  -4.5754209358992615e-05 3.6964576876813524e-05 0.0000000000000000e+00  -4.4419968561093128e-05 3.7667067176823197e-05 0.0000000000000000e+00  -4.3970803840636138e-05 3.6890258920700155e-05 0.0000000000000000e+00  -4.3121953203088166e-05 3.8304626295135414e-05 0.0000000000000000e+00  -4.3530821310362573e-05 3.9145239214280443e-05 0.0000000000000000e+00  -4.2200160915066193e-05 3.9713034257832293e-05 0.0000000000000000e+00  -4.2520265834415244e-05 4.0602606776223906e-05 0.0000000000000000e+00  -4.1199970458242253e-05 4.1113451729423871e-05 0.0000000000000000e+00  -4.0876572006674048e-05 4.0203370911885056e-05 0.0000000000000000e+00  -3.9904757975457203e-05 4.1548858385578569e-05 0.0000000000000000e+00  -4.0123739062859023e-05 4.2494681755552508e-05 0.0000000000000000e+00  -3.8812998273999787e-05 4.2855606877304868e-05 0.0000000000000000e+00  -3.8962885938755575e-05 4.3844139224956856e-05 0.0000000000000000e+00  -3.7639021343893195e-05 4.4113529461540802e-05 0.0000000000000000e+00  -3.7602047228206287e-05 4.2938651267658287e-05 0.0000000000000000e+00  -3.6413743019903910e-05 4.4331589478665485e-05 0.0000000000000000e+00  -3.6459349654891498e-05 4.5352287115558625e-05 0.0000000000000000e+00  -3.5174151048101746e-05 4.5525792613683768e-05 0.0000000000000000e+00  -3.5099960618543218e-05 4.6544170728850118e-05 0.0000000000000000e+00  -3.3847758726047006e-05 4.6630446380836814e-05 0.0000000000000000e+00  -3.3691168211572668e-05 4.7709452696448138e-05 0.0000000000000000e+00  -3.2484916381912717e-05 4.7699977149192288e-05 0.0000000000000000e+00  -3.2249912487587344e-05 4.8790812901539165e-05 0.0000000000000000e+00  -3.1058475368213753e-05 4.8690557060595246e-05 0.0000000000000000e+00  -3.0717782557351586e-05 4.9832743005718088e-05 0.0000000000000000e+00  -2.9602892042550909e-05 4.9626169577575481e-05 0.0000000000000000e+00  -2.9173021399415111e-05 5.0766137354465958e-05 0.0000000000000000e+00  -2.8094476991874823e-05 5.0516984060701119e-05 0.0000000000000000e+00  -2.7640190176323751e-05 5.1613385829099988e-05 0.0000000000000000e+00  -2.6558768051143968e-05 5.1313944908675171e-05 0.0000000000000000e+00  -2.6039621583671001e-05 5.2398413681880156e-05 0.0000000000000000e+00  -3.5048549802371376e-05 4.7760959162608073e-05 0.0000000000000000e+00  -2.5001608239526850e-05 5.2066251414829039e-05 0.0000000000000000e+00  -2.4396671906826725e-05 5.3121015476782367e-05 0.0000000000000000e+00  -2.3405278934775045e-05 5.2736845269413285e-05 0.0000000000000000e+00  -2.2730105365694117e-05 5.3771673122680910e-05 0.0000000000000000e+00  -2.1784714064374883e-05 5.3302750706959567e-05 0.0000000000000000e+00  -2.1041848676752512e-05 5.4330436102788501e-05 0.0000000000000000e+00  -2.7070702768884065e-05 5.2817563775372801e-05 0.0000000000000000e+00  -3.0078675300091778e-05 4.8490623362197566e-05 0.0000000000000000e+00  -4.3802200798463677e-05 4.0103859385895846e-05 0.0000000000000000e+00  -2.1993449662767014e-05 5.4886642247369412e-05 0.0000000000000000e+00  -4.0363184149348188e-05 4.3520885236383786e-05 0.0000000000000000e+00  -2.5501505200250234e-05 5.1008818320822173e-05 0.0000000000000000e+00  -2.0167932640712704e-05 5.3861507324094753e-05 0.0000000000000000e+00  -1.9350512904859029e-05 5.4814896484918893e-05 0.0000000000000000e+00  -1.8533760928392396e-05 5.4312941609913858e-05 0.0000000000000000e+00  -1.7658730052797345e-05 5.5212760598156166e-05 0.0000000000000000e+00  -1.8472066968297944e-05 5.5795199279116351e-05 0.0000000000000000e+00  -1.6715394517632923e-05 5.6149477184945387e-05 0.0000000000000000e+00  -1.5973148461689893e-05 5.5536802265191005e-05 0.0000000000000000e+00  -1.4966826117221963e-05 5.6436883633721505e-05 0.0000000000000000e+00  -1.4361330126017440e-05 5.5797424226095301e-05 0.0000000000000000e+00  -1.3259235448966447e-05 5.6614971292587575e-05 0.0000000000000000e+00  -1.3679079514847056e-05 5.7516914668747159e-05 0.0000000000000000e+00  -1.2785777440411943e-05 5.5792727862635707e-05 0.0000000000000000e+00  -1.1466706845437714e-05 5.6677149286823273e-05 0.0000000000000000e+00  -3.9639268941151038e-05 4.0721917101100471e-05 0.0000000000000000e+00  -2.2698017965150579e-05 5.2276224672154361e-05 0.0000000000000000e+00  -4.7772501000342167e-05 3.0301727470116027e-05 0.0000000000000000e+00  -3.6345012773160966e-05 4.3413060335498492e-05 0.0000000000000000e+00  -3.9344472807086073e-05 4.4747762587725582e-05 0.0000000000000000e+00  -5.0781260547619010e-05 2.8511383054023893e-05 0.0000000000000000e+00  -5.6574497875777983e-05 1.7709856550078965e-05 0.0000000000000000e+00  -5.9170724899722196e-05 3.8637868713771352e-06 0.0000000000000000e+00  -5.0258294073506461e-06 6.0013244410162827e-05 0.0000000000000000e+00  -5.9081461480837304e-06 5.9034446847229761e-05 0.0000000000000000e+00  -7.7972917072574857e-06 5.8796011622281219e-05 0.0000000000000000e+00  -6.7309034454443525e-06 5.8113301854382226e-05 0.0000000000000000e+00  -4.6494648471684564e-06 5.8295940463282619e-05 0.0000000000000000e+00  -8.5089826596811060e-06 5.7840821332273198e-05 0.0000000000000000e+00  -7.4715274297515315e-06 5.7241107610517322e-05 0.0000000000000000e+00  -9.3182263817853485e-06 5.6889903841066183e-05 0.0000000000000000e+00  -8.0704078110835347e-06 5.6422718413551070e-05 0.0000000000000000e+00  -9.7105915443893104e-06 5.8501197186241505e-05 0.0000000000000000e+00  -4.7858732751885632