<?xml version="1.0"?>
<VTKFile type="UnstructuredGrid"  version="0.1"  >
<UnstructuredGrid>
<Piece  NumberOfPoints="5919" NumberOfCells="11379">
<Points>
<DataArray  type="Float64"  NumberOfComponents="3"  format="ascii">-0.075 0 0  -0.09 0 0  0 0.075 0  0 0.09 0  -0.07562500000000046 0 0  -0.07625 0 0  -0.07687499999999593 0 0  -0.07749999999999639 0 0  -0.07812499999999593 0 0  -0.07874999999999457 0 0  -0.07937499999998961 0 0  -0.07999999999998646 0 0  -0.0806249999999851 0 0  -0.08124999999998554 0 0  -0.081874999999986 0 0  -0.08249999999998103 0 0  -0.0831249999999851 0 0  -0.08374999999998735 0 0  -0.08437499999998781 0 0  -0.08499999999998645 0 0  -0.08562499999998961 0 0  -0.08624999999999458 0 0  -0.08687499999999322 0 0  -0.08749999999999278 0 0  -0.08812499999999593 0 0  -0.08874999999999458 0 0  -0.08937499999999954 0 0  0 0.07562500000000046 0  0 0.07625 0  0 0.07687499999999593 0  0 0.07749999999999639 0  0 0.07812499999999593 0  0 0.07874999999999457 0  0 0.07937499999998961 0  0 0.07999999999998646 0  0 0.0806249999999851 0  0 0.08124999999998554 0  0 0.081874999999986 0  0 0.08249999999998103 0  0 0.0831249999999851 0  0 0.08374999999998735 0  0 0.08437499999998781 0  0 0.08499999999998645 0  0 0.08562499999998961 0  0 0.08624999999999458 0  0 0.08687499999999322 0  0 0.08749999999999278 0  0 0.08812499999999593 0  0 0.08874999999999458 0  0 0.08937499999999954 0  -0.07499732550029332 0.0006333780885467436 0  -0.07498930219191856 0.001266711004577862 0  -0.07497593064709797 0.001899953578789478 0  -0.0749572118194915 0.002533060648283661 0  -0.07493314704412735 0.003165987059857997 0  -0.07490373803730491 0.003798687673236857 0  -0.07486898689647167 0.004431117364271957 0  -0.07482889610007797 0.00506323102808237 0  -0.07478346850740571 0.005694983582229076 0  -0.07473270735836329 0.006326329969993076 0  -0.07467661627323231 0.006957225163843367 0  -0.07461519925241498 0.007587624168500355 0  -0.07454846067616358 0.008217482023983437 0  -0.07447640530426373 0.008846753808885912 0  -0.07439903827570751 0.009475394643486264 0  -0.07431636510828754 0.01010335969327536 0  -0.07422839169830507 0.01073060417138724 0  -0.0741351243200245 0.01135708334276503 0  -0.07403656962514533 0.01198275252773784 0  -0.07393273464272992 0.01260756710264446 0  -0.07382362677830316 0.01323148250566802 0  -0.07370925381337702 0.01385445423952763 0  -0.07358962390503374 0.01447643787385861 0  -0.07346474558537656 0.01509738904830546 0  -0.07333462776059327 0.01571726347731123 0  -0.07319927971073674 0.01633601695118258 0  -0.07305871108884392 0.01695360534036448 0  -0.0729129319200276 0.01756998459946453 0  -0.07276195260158634 0.01818511076690217 0  -0.07260578390131771 0.01879893997211421 0  -0.07244443695705384 0.01941142843727504 0  -0.07227792327604832 0.02002253247972575 0  -0.07210625473409191 0.02063220851538312 0  -0.07192944357467188 0.02124041306185203 0  -0.07174750240793701 0.02184710274208165 0  -0.07156044420982843 0.02245223428730497 0  -0.07136828232121049 0.02305576453991481 0  -0.07117103044716193 0.02365765045580707 0  -0.07096870265601565 0.02425784910749585 0  -0.07076131337772733 0.02485631768905173 0  -0.07054887740317399 0.02545301351808712 0  -0.07033140988340546 0.02604789403795278 0  -0.07010892632771618 0.02664091682309122 0  -0.06988144260342029 0.02723203957959953 0  -0.06964897493588845 0.02782122014542104 0  -0.06941153990404608 0.02840841650196325 0  -0.06916915444145821 0.02899358677110683 0  -0.06892183583498188 0.02957668921863647 0  -0.06866960172431634 0.03015768225550118 0  -0.06841247009804238 0.03073652444705577 0  -0.06815045929502436 0.03131317450973675 0  -0.06788358800212692 0.03188759131633323 0  -0.06761187525189501 0.03245973390097624 0  -0.06733534042267535 0.03302956145882691 0  -0.067054003237841 0.03359703334789561 0  -0.0667678837619493 0.03416210909693408 0  -0.06647700240113856 0.03472474840454598 0  -0.06618137990115491 0.03528491114313606 0  -0.06588103734559315 0.03584255736228317 0  -0.06557599615496577 0.03639764729050374 0  -0.06526627808513166 0.03695014133821766 0  -0.06495190522489296 0.03750000010208697 0  -0.06463289999508666 0.03804718436658785 0  -0.06430928514715217 0.03859165510654177 0  -0.06398108376163114 0.03913337348973558 0  -0.06364831924552038 0.03967230088134944 0  -0.06331101533144559 0.04020839884528432 0  -0.06296919607630455 0.04074162914641376 0  -0.06262288585854718 0.04127195375490931 0  -0.06227210937798189 0.04179933484658169 0  -0.06191689165051388 0.04232373481084253 0  -0.06155725801080746 0.0428451162466725 0  -0.06119323410799216 0.04336344196906497 0  -0.06082484590421244 0.0438786750110895 0  -0.06045211967305701 0.04439077862613353 0  -0.0600750819967836 0.04489971629175096 0  -0.05969375976683255 0.04540545170901489 0  -0.05930818017767509 0.04590794881077162 0  -0.05891837072971831 0.04640717175777329 0  -0.05852435922365673 0.04690308494609267 0  -0.05812617376207777 0.04739565300510946 0  -0.05772384274119806 0.04788484080781136 0  -0.05731739485671017 0.04837061346354803 0  -0.05690685909628274 0.04885293632726513 0  -0.05649226473854899 0.04933177500059869 0  -0.05607364135262184 0.04980709533246783 0  -0.05565101879450787 0.05027886342324508 0  -0.05522442720640103 0.05074704562558213 0  -0.05479389701341404 0.05121160854809557 0  -0.0543594589196397 0.05167251905959302 0  -0.05392114391009274 0.05212974428699098 0  -0.05347898324550125 0.05258325162090489 0  -0.05303300845963878 0.05303300871834336 0  -0.05258325136310237 0.05347898349898577 0  -0.05212974402962456 0.05392114415890878 0  -0.05167251880197807 0.05435945916452096 0  -0.05121160829213202 0.05479389725264334 0  -0.05074704536998194 0.05522442744127814 0  -0.05027886316816118 0.05565101902496777 0  -0.0498070950786487 0.05607364157807524 0  -0.04933177474852475 0.05649226495867214 0  -0.04885293607669776 0.05690685931138779 0  -0.04837061321281783 0.05731739506830341 0  -0.04788484055795971 0.05772384294846261 0  -0.04739565275647283 0.05812617396481425 0  -0.04690308469730255 0.05852435942304421 0  -0.0464071715105148 0.05891837092447196 0  -0.04590794856566115 0.05930818036740472 0  -0.04540545146654411 0.05969375995126549 0  -0.04489971605012837 0.06007508217737072 0  -0.04439077838629854 0.06045211984917097 0  -0.04387867477283632 0.06082484607608685 0  -0.04336344173284153 0.06119323427538748 0  -0.04284511601052603 0.06155725817517025 0  -0.0423237345743887 0.0619168918121436 0  -0.04179933461188809 0.06227210953551689 0  -0.04127195352167939 0.06262288601225861 0  -0.0407416289147566 0.06296919622618879 0  -0.04020839861492601 0.06331101547774459 0  -0.03967230065374344 0.06364831938738828 0  -0.03913337326355971 0.06398108389996929 0  -0.03859165488355108 0.06430928528096769 0  -0.03804718414709186 0.06463290012429646 0  -0.03749999988611418 0.06495190534958491 0  -0.03695014112505677 0.06526627820581152 0  -0.03639764707926479 0.06557599627221296 0  -0.03584255715307392 0.06588103745941339 0  -0.03528491093559739 0.06618138001180514 0  -0.03472474819896433 0.06647700250852563 0  -0.03416210889356728 0.06676788386600291 0  -0.03359703314717602 0.06705400333841043 0  -0.03302956125949812 0.06733534052045077 0  -0.03245973370496693 0.06761187534599697 0  -0.03188759112374853 0.06788358809259153 0  -0.03131317431915058 0.06815045938259322 0  -0.03073652425855281 0.06841247018273346 0  -0.03015768207003599 0.06866960180576723 0  -0.02957668903650008 0.06892183591314276 0  -0.02899358659327118 0.06916915451600146 0  -0.02840841632674301 0.06941153997575937 0  -0.02782121997282782 0.06964897500483067 0  -0.02723203940995508 0.06988144266952889 0  -0.0266409166579516 0.07010892639046812 0  -0.02604789387506928 0.07033140994373088 0  -0.02545301335795219 0.07054887746094836 0  -0.02485631753232247 0.07076131343278159 0  -0.02425784895362267 0.07096870270861112 0  -0.02365765030562931 0.07117103049708186 0  -0.02305576439449519 0.07136828236818879 0  -0.02245223414600848 0.07156044425416049 0  -0.02184710260453368 0.07174750244982035 0  -0.02124041292701389 0.07192944361448893 0  -0.02063220838397557 0.07210625477169237 0  -0.02002253235317021 0.07227792331110691 0  -0.01941142831405375 0.07244443699007089 0  -0.01879893985259748 0.07260578393226275 0  -0.01818511065113614 0.07276195263051931 0  -0.01756998448780775 0.07291293194693377 0  -0.01695360523258188 0.07305871111385535 0  -0.01633601684679545 0.07319927973403301 0  -0.01571726337718555 0.07333462778205246 0  -0.01509738895215741 0.0734647456051355 0  -0.01447643778198955 0.07358962392310607 0  -0.01385445415224862 0.07370925382978205 0  -0.01323148242309178 0.07382362679310339 0  -0.01260756702481299 0.07393273465600232 0  -0.01198275245296777 0.07403656963724679 0  -0.01135708327182163 0.07413512433089263 0  -0.01073060410509015 0.07422839170788911 0  -0.01010335963169114 0.07431636511665995 0  -0.009475394586468427 0.07439903828296925 0  -0.008846753756034196 0.07447640531054177 0  -0.008217481975154187 0.07454846068154604 0  -0.007587624122341044 0.07461519925710892 0  -0.006957225120665364 0.07467661627725497 0  -0.006326329929708428 0.0747327073617735 0  -0.00569498354610042 0.07478346851015701 0  -0.005063230996155622 0.07482889610223827 0  -0.004431117336623075 0.07486898689810807 0  -0.003798687649874437 0.07490373803848972 0  -0.003165987040732187 0.07493314704493542 0  -0.002533060632086068 0.07495721182003888 0  -0.001899953566009843 0.07497593064742182 0  -0.001266710996027161 0.07498930219206298 0  -0.0006333780842573328 0.07499732550032956 0  -0.08999776724665666 0.000633948433714801 0  -0.08999106909740845 0.001267865412988591 0  -0.08997990588459483 0.001901719484953504 0  -0.0899642781620982 0.002535479199799435 0  -0.08994418670531515 0.003169113112434524 0  -0.08991963251112066 0.003802589783950891 0  -0.08989061679781303 0.004435877783339801 0  -0.08985714100505557 0.005068945688952996 0  -0.08981920679381129 0.00570176208996457 0  -0.08977681604625666 0.0063342955880340
[...]
<PointData  Vectors="f_130"> 
<DataArray  type="Float64"  Name="f_130"  NumberOfComponents="3" format="ascii">-6.1158146971372870e-05 0.0000000000000000e+00 0.0000000000000000e+00  -5.5840475801640208e-05 0.0000000000000000e+00 0.0000000000000000e+00  0.0000000000000000e+00 6.1155408901342439e-05 0.0000000000000000e+00  0.0000000000000000e+00 5.5837405215550358e-05 0.0000000000000000e+00  -6.0873982002670706e-05 0.0000000000000000e+00 0.0000000000000000e+00  -6.0595429934921599e-05 0.0000000000000000e+00 0.0000000000000000e+00  -6.0323437791843228e-05 0.0000000000000000e+00 0.0000000000000000e+00  -6.0057723151913281e-05 0.0000000000000000e+00 0.0000000000000000e+00  -5.9798030372155168e-05 0.0000000000000000e+00 0.0000000000000000e+00  -5.9544253972011008e-05 0.0000000000000000e+00 0.0000000000000000e+00  -5.9295948483840961e-05 0.0000000000000000e+00 0.0000000000000000e+00  -5.9053530163508558e-05 0.0000000000000000e+00 0.0000000000000000e+00  -5.8816258928262648e-05 0.0000000000000000e+00 0.0000000000000000e+00  -5.8584653737818823e-05 0.0000000000000000e+00 0.0000000000000000e+00  -5.8358430889937418e-05 0.0000000000000000e+00 0.0000000000000000e+00  -5.8136981046732723e-05 0.0000000000000000e+00 0.0000000000000000e+00  -5.7920761077116390e-05 0.0000000000000000e+00 0.0000000000000000e+00  -5.7709079402874716e-05 0.0000000000000000e+00 0.0000000000000000e+00  -5.7502507590143792e-05 0.0000000000000000e+00 0.0000000000000000e+00  -5.7300332185395737e-05 0.0000000000000000e+00 0.0000000000000000e+00  -5.7103119540855349e-05 0.0000000000000000e+00 0.0000000000000000e+00  -5.6910057233388319e-05 0.0000000000000000e+00 0.0000000000000000e+00  -5.6721073470096050e-05 0.0000000000000000e+00 0.0000000000000000e+00  -5.6536669919637222e-05 0.0000000000000000e+00 0.0000000000000000e+00  -5.6356738891355301e-05 0.0000000000000000e+00 0.0000000000000000e+00  -5.6180902988747185e-05 0.0000000000000000e+00 0.0000000000000000e+00  -5.6008654171888618e-05 0.0000000000000000e+00 0.0000000000000000e+00  0.0000000000000000e+00 6.0870813680188357e-05 0.0000000000000000e+00  0.0000000000000000e+00 6.0592500909645439e-05 0.0000000000000000e+00  0.0000000000000000e+00 6.0320520966969988e-05 0.0000000000000000e+00  0.0000000000000000e+00 6.0054504391038645e-05 0.0000000000000000e+00  0.0000000000000000e+00 5.9794629679128443e-05 0.0000000000000000e+00  0.0000000000000000e+00 5.9540758493762301e-05 0.0000000000000000e+00  0.0000000000000000e+00 5.9292598356773228e-05 0.0000000000000000e+00  0.0000000000000000e+00 5.9050053456389054e-05 0.0000000000000000e+00  0.0000000000000000e+00 5.8813038638022334e-05 0.0000000000000000e+00  0.0000000000000000e+00 5.8581355752215257e-05 0.0000000000000000e+00  0.0000000000000000e+00 5.8354909320397596e-05 0.0000000000000000e+00  0.0000000000000000e+00 5.8133596232870354e-05 0.0000000000000000e+00  0.0000000000000000e+00 5.7917307244941038e-05 0.0000000000000000e+00  0.0000000000000000e+00 5.7705964875201185e-05 0.0000000000000000e+00  0.0000000000000000e+00 5.7499385918765111e-05 0.0000000000000000e+00  0.0000000000000000e+00 5.7297536124157273e-05 0.0000000000000000e+00  0.0000000000000000e+00 5.7100053146505126e-05 0.0000000000000000e+00  0.0000000000000000e+00 5.6907108910280075e-05 0.0000000000000000e+00  0.0000000000000000e+00 5.6718336553879737e-05 0.0000000000000000e+00  0.0000000000000000e+00 5.6533868980344586e-05 0.0000000000000000e+00  0.0000000000000000e+00 5.6353711222058949e-05 0.0000000000000000e+00  0.0000000000000000e+00 5.6177662562927003e-05 0.0000000000000000e+00  0.0000000000000000e+00 5.6005629891787550e-05 0.0000000000000000e+00  -6.1156893318045969e-05 5.1721474681987752e-07 0.0000000000000000e+00  -6.1148869521885922e-05 1.0329786982513466e-06 0.0000000000000000e+00  -6.1137832658670089e-05 1.5492878075248062e-06 0.0000000000000000e+00  -6.1122465295698118e-05 2.0655840527513326e-06 0.0000000000000000e+00  -6.1102816262055030e-05 2.5816310539169372e-06 0.0000000000000000e+00  -6.1078871477646043e-05 3.0974949430451350e-06 0.0000000000000000e+00  -6.1050576644001761e-05 3.6131584928915468e-06 0.0000000000000000e+00  -6.1017726540169839e-05 4.1285908517823617e-06 0.0000000000000000e+00  -6.0980707755982634e-05 4.6437591038555066e-06 0.0000000000000000e+00  -6.0939415210001554e-05 5.1587724663594557e-06 0.0000000000000000e+00  -6.0893680593535822e-05 5.6730657584907519e-06 0.0000000000000000e+00  -6.0843555166325095e-05 6.1867158259023964e-06 0.0000000000000000e+00  -6.0789714785464836e-05 6.6998819893437071e-06 0.0000000000000000e+00  -6.0730329910920248e-05 7.2122481089768439e-06 0.0000000000000000e+00  -6.0666749740964826e-05 7.7247289891450797e-06 0.0000000000000000e+00  -6.0598977950974695e-05 8.2369130576122398e-06 0.0000000000000000e+00  -6.0527062347183167e-05 8.7488977709594126e-06 0.0000000000000000e+00  -6.0452050588961612e-05 9.2604410747220914e-06 0.0000000000000000e+00  -6.0371201094904877e-05 9.7703557961344451e-06 0.0000000000000000e+00  -6.0286377103965295e-05 1.0279754676805066e-05 0.0000000000000000e+00  -6.0197460002564387e-05 1.0788440790034583e-05 0.0000000000000000e+00  -6.0104162342243190e-05 1.1296399494549559e-05 0.0000000000000000e+00  -6.0006545386399983e-05 1.1803476660901503e-05 0.0000000000000000e+00  -5.9904733721625287e-05 1.2309796292171099e-05 0.0000000000000000e+00  -5.9798556018044316e-05 1.2815065147513320e-05 0.0000000000000000e+00  -5.9687829565245131e-05 1.3319395144072384e-05 0.0000000000000000e+00  -5.9572949770342341e-05 1.3823233285750541e-05 0.0000000000000000e+00  -5.9453980641460398e-05 1.4325656250588318e-05 0.0000000000000000e+00  -5.9331092145737951e-05 1.4827134671282456e-05 0.0000000000000000e+00  -5.9204138053683236e-05 1.5327759850504089e-05 0.0000000000000000e+00  -5.9072466914831098e-05 1.5827068048447705e-05 0.0000000000000000e+00  -5.8935937065780051e-05 1.6324939033575244e-05 0.0000000000000000e+00  -5.8796361254098444e-05 1.6821694360599607e-05 0.0000000000000000e+00  -5.8651522220510763e-05 1.7319181791018035e-05 0.0000000000000000e+00  -5.8502982846912428e-05 1.7814209156494688e-05 0.0000000000000000e+00  -5.8350402531981416e-05 1.8307072831872528e-05 0.0000000000000000e+00  -5.8193566819039808e-05 1.8799401988794669e-05 0.0000000000000000e+00  -5.8032675965028549e-05 1.9290320983988338e-05 0.0000000000000000e+00  -5.7867737986864801e-05 1.9778567411975057e-05 0.0000000000000000e+00  -5.7698709550547328e-05 2.0266747686868912e-05 0.0000000000000000e+00  -5.7525755126922609e-05 2.0753474210244751e-05 0.0000000000000000e+00  -5.7348250588874657e-05 2.1238424294402085e-05 0.0000000000000000e+00  -5.7166127433668416e-05 2.1721708076264849e-05 0.0000000000000000e+00  -5.6980565030274332e-05 2.2203969323801236e-05 0.0000000000000000e+00  -5.6791898657035450e-05 2.2684637161870138e-05 0.0000000000000000e+00  -5.6597405884679484e-05 2.3163281812380037e-05 0.0000000000000000e+00  -5.6400198040986471e-05 2.3639628000659378e-05 0.0000000000000000e+00  -5.6198679090166498e-05 2.4115264753959508e-05 0.0000000000000000e+00  -5.5992517205076776e-05 2.4589431828882421e-05 0.0000000000000000e+00  -5.5782385751538753e-05 2.5061719886197436e-05 0.0000000000000000e+00  -5.5568833191993576e-05 2.5532190234442337e-05 0.0000000000000000e+00  -5.5350741120941374e-05 2.6000939354650270e-05 0.0000000000000000e+00  -5.5129429174538383e-05 2.6466761453045301e-05 0.0000000000000000e+00  -5.4904299705101497e-05 2.6931650714291681e-05 0.0000000000000000e+00  -5.4675115272979192e-05 2.7394474374337367e-05 0.0000000000000000e+00  -5.4440903004036346e-05 2.7855141960395177e-05 0.0000000000000000e+00  -5.4203657347434436e-05 2.8313778188907510e-05 0.0000000000000000e+00  -5.3963002282602091e-05 2.8770204597230790e-05 0.0000000000000000e+00  -5.3718822818211721e-05 2.9224635786868733e-05 0.0000000000000000e+00  -5.3469160727761760e-05 2.9678857836741436e-05 0.0000000000000000e+00  -5.3216229962344374e-05 3.0128552707303286e-05 0.0000000000000000e+00  -5.2959955507149971e-05 3.0576851513398109e-05 0.0000000000000000e+00  -5.2700207149478269e-05 3.1023434939313993e-05 0.0000000000000000e+00  -5.2436342764060276e-05 3.1467318720377729e-05 0.0000000000000000e+00  -5.2168567674033004e-05 3.1909198522655348e-05 0.0000000000000000e+00  -5.1897451826706361e-05 3.2348070987055029e-05 0.0000000000000000e+00  -5.1622309543528804e-05 3.2785417060457525e-05 0.0000000000000000e+00  -5.1343361315224531e-05 3.3219896649986899e-05 0.0000000000000000e+00  -5.1061991076102382e-05 3.3652355999267855e-05 0.0000000000000000e+00  -5.0774745239015164e-05 3.4083134419403524e-05 0.0000000000000000e+00  -5.0485527637214596e-05 3.4510222288699708e-05 0.0000000000000000e+00  -5.0191800986507062e-05 3.4936545190439383e-05 0.0000000000000000e+00  -4.9895112073072491e-05 3.5358370750148365e-05 0.0000000000000000e+00  -4.9595064871302939e-05 3.5779148440044616e-05 0.0000000000000000e+00  -4.9290572951777742e-05 3.6196531372545402e-05 0.0000000000000000e+00  -4.8983710404783111e-05 3.6611983503993001e-05 0.0000000000000000e+00  -4.8672581263259622e-05 3.7024250490731093e-05 0.0000000000000000e+00  -4.8358321572358321e-05 3.7434046607964403e-05 0.0000000000000000e+00  -4.8040903214306740e-05 3.7840373367829625e-05 0.0000000000000000e+00  -4.7719892560068602e-05 3.8245270283833581e-05 0.0000000000000000e+00  -4.7394591201511751e-05 3.8646515427251500e-05 0.0000000000000000e+00  -4.7066592016140564e-05 3.9045517236468753e-05 0.0000000000000000e+00  -4.6735240748840465e-05 3.9441702407524760e-05 0.0000000000000000e+00  -4.6400950843496471e-05 3.9834800000084344e-05 0.0000000000000000e+00  -4.6062278161343392e-05 4.0226995533958483e-05 0.0000000000000000e+00  -4.5720804034233177e-05 4.0613500858956386e-05 0.0000000000000000e+00  -4.5376963639784180e-05 4.0998786312153962e-05 0.0000000000000000e+00  -4.5028812453065331e-05 4.1379764971481028e-05 0.0000000000000000e+00  -4.4678544468236286e-05 4.1758507939569456e-05 0.0000000000000000e+00  -4.4323032726333547e-05 4.2135512532921468e-05 0.0000000000000000e+00  -4.3966116342526784e-05 4.2507884983047739e-05 0.0000000000000000e+00  -4.3605979722467575e-05 4.2877836310059266e-05 0.0000000000000000e+00  -4.3242616088000633e-05 4.3245173152903233e-05 0.0000000000000000e+00  -4.2875351013012363e-05 4.3608311903189000e-05 0.0000000000000000e+00  -4.2505640292529155e-05 4.3968601864789882e-05 0.0000000000000000e+00  -4.2133037516906632e-05 4.4326143103291487e-05 0.0000000000000000e+00  -4.1756894231826789e-05 4.4680935221907836e-05 0.0000000000000000e+00  -4.1378753623476405e-05 4.5032125763812753e-05 0.0000000000000000e+00  -4.0996870337735026e-05 4.5381111519313042e-05 0.0000000000000000e+00  -4.0611992386753307e-05 4.5724101252914999e-05 0.0000000000000000e+00  -4.0225096141349312e-05 4.6065747632375185e-05 0.0000000000000000e+00  -3.9834783160128875e-05 4.6403739222729791e-05 0.0000000000000000e+00  -3.9441192086942608e-05 4.6738522921983112e-05 0.0000000000000000e+00  -3.9045159216313158e-05 4.7070723293314831e-05 0.0000000000000000e+00  -3.8646497052736653e-05 4.7398732167824561e-05 0.0000000000000000e+00  -3.8244677646213803e-05 4.7723013130169637e-05 0.0000000000000000e+00  -3.7840716731147607e-05 4.8044127091713350e-05 0.0000000000000000e+00  -3.7434044794603202e-05 4.8362146862015539e-05 0.0000000000000000e+00  -3.7022966482302161e-05 4.8677907036550335e-05 0.0000000000000000e+00  -3.6610776398405226e-05 4.8987577749922872e-05 0.0000000000000000e+00  -3.6196645342543419e-05 4.9295374243271147e-05 0.0000000000000000e+00  -3.5779110544206504e-05 4.9599370474357461e-05 0.0000000000000000e+00  -3.5358511315257193e-05 4.9899888587402123e-05 0.0000000000000000e+00  -3.4936149725024553e-05 5.0197075889622054e-05 0.0000000000000000e+00  -3.4511058505330479e-05 5.0490451002140628e-05 0.0000000000000000e+00  -3.4083591334778831e-05 5.0780147349970914e-05 0.0000000000000000e+00  -3.3653683869207897e-05 5.1066204677366779e-05 0.0000000000000000e+00  -3.3221411728541024e-05 5.1348418168241425e-05 0.0000000000000000e+00  -3.2786510132378425e-05 5.1626681969898125e-05 0.0000000000000000e+00  -3.2349281624091592e-05 5.1901716218103634e-05 0.0000000000000000e+00  -3.1910043163956409e-05 5.2173304132839257e-05 0.0000000000000000e+00  -3.1468438170024946e-05 5.2441176640227932e-05 0.0000000000000000e+00  -3.1024604935197543e-05 5.2705020119672968e-05 0.0000000000000000e+00  -3.0578561272399913e-05 5.2965186917824323e-05 0.0000000000000000e+00  -3.0130225403122919e-05 5.3221464132949323e-05 0.0000000000000000e+00  -2.9679738953062055e-05 5.3473979007936637e-05 0.0000000000000000e+00  -2.9227100628491925e-05 5.3722744734880229e-05 0.0000000000000000e+00  -2.8772467240456817e-05 5.3967631397298073e-05 0.0000000000000000e+00  -2.8315740520777174e-05 5.4208664569798003e-05 0.0000000000000000e+00  -2.7857017454406255e-05 5.4445873681890551e-05 0.0000000000000000e+00  -2.7396285770551028e-05 5.4679101747147860e-05 0.0000000000000000e+00  -2.6933599984610678e-05 5.4908462528588235e-05 0.0000000000000000e+00  -2.6469047644721725e-05 5.5133914760483747e-05 0.0000000000000000e+00  -2.6002528727397692e-05 5.5355268178063789e-05 0.0000000000000000e+00  -2.5534177031668553e-05 5.5572879752248131e-05 0.0000000000000000e+00  -2.5063994976417155e-05 5.5786642123106631e-05 0.0000000000000000e+00  -2.4592057865623772e-05 5.5996331314709822e-05 0.0000000000000000e+00  -2.4118236509019070e-05 5.6201931820864209e-05 0.0000000000000000e+00  -2.3642650731128431e-05 5.6403549931320535e-05 0.0000000000000000e+00  -2.3165371414649141e-05 5.6601227493252584e-05 0.0000000000000000e+00  -2.2686658270413797e-05 5.6795006498242246e-05 0.0000000000000000e+00  -2.2206295351409342e-05 5.6984432523030543e-05 0.0000000000000000e+00  -2.1724450445974541e-05 5.7169391563538457e-05 0.0000000000000000e+00  -2.1241975434575586e-05 5.7350483906475117e-05 0.0000000000000000e+00  -2.0756348439182434e-05 5.7527812765618676e-05 0.0000000000000000e+00  -2.0269212451785214e-05 5.7701238752589309e-05 0.0000000000000000e+00  -1.9780816878428131e-05 5.7870196459915969e-05 0.0000000000000000e+00  -1.9291448388476931e-05 5.8035160578727686e-05 0.0000000000000000e+00  -1.8800903755416505e-05 5.8196087283344895e-05 0.0000000000000000e+00  -1.8308845294744484e-05 5.8352788658614739e-05 0.0000000000000000e+00  -1.7815349221813971e-05 5.8505325649543711e-05 0.0000000000000000e+00  -1.7320674400779731e-05 5.8653633257531417e-05 0.0000000000000000e+00  -1.6825234255106072e-05 5.8797282498245133e-05 0.0000000000000000e+00  -1.6327548994658935e-05 5.8937306762126933e-05 0.0000000000000000e+00  -1.5829230355250568e-05 5.9072593706820841e-05 0.0000000000000000e+00  -1.5330145445368904e-05 5.9204903838521806e-05 0.0000000000000000e+00  -1.4829216440827043e-05 5.9332075748444898e-05 0.0000000000000000e+00  -1.4326783459611707e-05 5.9455203419471127e-05 0.0000000000000000e+00  -1.3823872910539781e-05 5.9573430613307450e-05 0.0000000000000000e+00  -1.3320939147087081e-05 5.9688136580578087e-05 0.0000000000000000e+00  -1.2816859713141454e-05 5.9798476507929651e-05 0.0000000000000000e+00  -1.2311611948964107e-05 5.9904678731837018e-05 0.0000000000000000e+00  -1.1805235572310444e-05 6.0006395490015060e-05 0.0000000000000000e+00  -1.1297694067908555e-05 6.0103732307082850e-05 0.0000000000000000e+00  -1.0789788728320016e-05 6.0196471765119291e-05 0.0000000000000000e+00  -1.0281961210585341e-05 6.0286525930511827e-05 0.0000000000000000e+00  -9.7708832314959731e-06 6.0370510997333578e-05 0.0000000000000000e+00  -9.2612579620299447e-06 6.0450762220515910e-05 0.0000000000000000e+00  -8.7503449058063394e-06 6.0526335194583830e-05 0.0000000000000000e+00  -8.2380482111695923e-06 6.0598174320433886e-05 0.0000000000000000e+00  -7.7268238099965890e-06 6.0666296930092498e-05 0.0000000000000000e+00  -7.2140173480770543e-06 6.0728711625831259e-05 0.0000000000000000e+00  -6.7010266965475731e-06 6.0787967792624949e-05 0.0000000000000000e+00  -6.1872291367237681e-06 6.0842271613551377e-05 0.0000000000000000e+00  -5.6735589758133720e-06 6.0892095665729847e-05 0.0000000000000000e+00  -5.1586705438619532e-06 6.0937484219332622e-05 0.0000000000000000e+00  -4.6436493108435892e-06 6.0978697866339753e-05 0.0000000000000000e+00  -4.1285400795397139e-06 6.1016170568486127e-05 0.0000000000000000e+00  -3.6138170194692673e-06 6.1048925639242747e-05 0.0000000000000000e+00  -3.0978057561644679e-06 6.1077383822058593e-05 0.0000000000000000e+00  -2.5819324353335258e-06 6.1101287375473295e-05 0.0000000000000000e+00  -2.0653586704144074e-06 6.1120274841572784e-05 0.0000000000000000e+00  -1.5494209722912288e-06 6.1135728976078398e-05 0.0000000000000000e+00  -1.0334477026458827e-06 6.1146426193483364e-05 0.0000000000000000e+00  -5.1695204257137749e-07 6.1153832031764804e-05 0.0000000000000000e+00  -5.5839119898676625e-05 3.9337247023280139e-07 0.0000000000000000e+00  -5.5834333843643981e-05 7.8735397052445418e-07 0.0000000000000000e+00  -5.5826968064212597e-05 1.1796667022641998e-06 0.0000000000000000e+00  -5.5817616270196805e-05 1.5735125572897274e-06 0.0000000000000000e+00  -5.5804894170580667e-05 1.9665161032017533e-06 0.0000000000000000e+00  -5.5789560633235579e-05 2.3588070798592486e-06 0.0000000000000000e+00  -5.5771682614657872e-05 2.7515650888700016e-06 0.0000000000000000e+00  -5.5750598762671497e-05 3.1450783826789222e-06 0.0000000000000000e+00  -5.5727235209636453e-05 3.5379338938956785e-06 0.0000000000000000e+00  -5.5700967935286256e-05 3.9305946562930795e-06 0.0000000000000000e+00  -5.5671775816276289e-05 4.3229192934052258e-06 0.0000000000000000e+00  -5.5639920303205923e-05 4.7151636303456172e-06 0.0000000000000000e+00  -5.5605144015888028e-05 5.1070013840261982e-06 0.0000000000000000e+00  -5.5567825888675976e-05 5.4986409931205295e-06 0.0000000000000000e+00  -5.5527611379223105e-05 5.8899685059346813e-06 0.0000000000000000e+00  -5.5484640909982461e-05 6.2808948265668632e-06 0.0000000000000000e+00  -5.5438967937194684e-05 6.6715950318334686e-06 0.0000000000000000e+00  -5.5390644374419257e-05 7.0619732099768272e-06 0.0000000000000000e+00  -5.5339426982964712e-05 7.4524933149493701e-06 0.0000000000000000e+00  -5.5285478237525451e-05 7.8411565687573961e-06 0.0000000000000000e+00  -5.5229335370166333e-05 8.2303851141652680e-06 0.0000000000000000e+00  -5.5169378481320916e-05 8.6193824349137847e-06 0.0000000000000000e+00  -5.5107268814209546e-05 9.0080649417009536e-06 0.0000000000000000e+00  -5.5042178580252913e-05 9.3961454362275594e-06 0.0000000000000000e+00  -5.4974887517656419e-05 9.7839902307607611e-06 0.0000000000000000e+00  -5.4904207184173363e-05 1.0170678380376964e-05 0.0000000000000000e+00  -5.4830956658722700e-05 1.0557072930345306e-05 0.0000000000000000e+00  -5.4755378045866496e-05 1.0943525958884784e-05 0.0000000000000000e+00  -5.4677202568990877e-05 1.1328924176760726e-05 0.0000000000000000e+00  -5.4596124677306867e-05 1.1713132936617639e-05 0.0000000000000000e+00  -5.4511935831126907e-05 1.2097079946763383e-05 0.0000000000000000e+00  -5.4424744823964162e-05 1.2481463436102915e-05 0.0000000000000000e+00  -5.4335501889099197e-05 1.2864810113858624e-05 0.0000000000000000e+00  -5.4243699576538662e-05 1.3247211009713178e-05 0.0000000000000000e+00  -5.4149099853947044e-05 1.3628536734414330e-05 0.0000000000000000e+00  -5.4051782268313922e-05 1.4009553670927954e-05 0.0000000000000000e+00  -5.3951357017934285e-05 1.4390218303626186e-05 0.0000000000000000e+00  -5.3848849664242599e-05 1.4769086336293109e-05 0.0000000000000000e+00  -5.3742931382105759e-05 1.5148469378372592e-05 0.0000000000000000e+00  -5.3635097776092111e-05 1.5527056826989677e-05 0.0000000000000000e+00  -5.3524534940995910e-05 1.5904393326542643e-05 0.0000000000000000e+00  -5.3411322223115229e-05 1.6280717432253169e-05 0.0000000000000000e+00  -5.3294706807892971e-05 1.6656409730279837e-05 0.0000000000000000e+00  -5.3175881855250544e-05 1.7031349065269464e-05 0.0000000000000000e+00  -5.3054749427722649e-05 1.7405587001824390e-05 0.0000000000000000e+00  -5.2930785641121640e-05 1.777944225