<?xml version="1.0"?>
<VTKFile type="UnstructuredGrid"  version="0.1"  >
<UnstructuredGrid>
<Piece  NumberOfPoints="63" NumberOfCells="40">
<Points>
<DataArray  type="Float64"  NumberOfComponents="3"  format="ascii">0 0 0  0.5 0 0  1 0 0  1.5 0 0  2 0 0  2.5 0 0  3 0 0  3.5 0 0  4 0 0  4.5 0 0  5 0 0  5.5 0 0  6 0 0  6.5 0 0  7 0 0  7.5 0 0  8 0 0  8.5 0 0  9 0 0  9.5 0 0  10 0 0  0 0.5 0  0.5 0.5 0  1 0.5 0  1.5 0.5 0  2 0.5 0  2.5 0.5 0  3 0.5 0  3.5 0.5 0  4 0.5 0  4.5 0.5 0  5 0.5 0  5.5 0.5 0  6 0.5 0  6.5 0.5 0  7 0.5 0  7.5 0.5 0  8 0.5 0  8.5 0.5 0  9 0.5 0  9.5 0.5 0  10 0.5 0  0 1 0  0.5 1 0  1 1 0  1.5 1 0  2 1 0  2.5 1 0  3 1 0  3.5 1 0  4 1 0  4.5 1 0  5 1 0  5.5 1 0  6 1 0  6.5 1 0  7 1 0  7.5 1 0  8 1 0  8.5 1 0  9 1 0  9.5 1 0  10 1 0  </DataArray>
</Points>
<Cells>
<DataArray  type="UInt32"  Name="connectivity"  format="ascii">0 1 22 21  1 2 23 22  2 3 24 23  3 4 25 24  4 5 26 25  5 6 27 26  6 7 28 27  7 8 29 28  8 9 30 29  9 10 31 30  10 11 32 31  11 12 33 32  12 13 34 33  13 14 35 34  14 15 36 35  15 16 37 36  16 17 38 37  17 18 39 38  18 19 40 39  19 20 41 40  21 22 43 42  22 23 44 43  23 24 45 44  24 25 46 45  25 26 47 46  26 27 48 47  27 28 49 48  28 29 50 49  29 30 51 50  30 31 52 51  31 32 53 52  32 33 54 53  33 34 55 54  34 35 56 55  35 36 57 56  36 37 58 57  37 38 59 58  38 39 60 59  39 40 61 60  40 41 62 61  </DataArray>
<DataArray  type="UInt32"  Name="offsets"  format="ascii">4 8 12 16 20 24 28 32 36 40 44 48 52 56 60 64 68 72 76 80 84 88 92 96 100 104 108 112 116 120 124 128 132 136 140 144 148 152 156 160 </DataArray>
<DataArray  type="UInt8"  Name="types"  format="ascii">9 9 9 9 9 9 9 9 9 9 9 9 9 9 9 9 9 9 9 9 9 9 9 9 9 9 9 9 9 9 9 9 9 9 9 9 9 9 9 9 </DataArray>
</Cells>
<PointData  Vectors="f_11"> 
<DataArray  type="Float64"  Name="f_11"  NumberOfComponents="3" format="ascii">0.0000000000000000e+00 0.0000000000000000e+00 0.0000000000000000e+00  -1.2390352360624487e-05 -8.5514443851916695e-06 0.0000000000000000e+00  -2.3911244294990059e-05 -2.7596445144658799e-05 0.0000000000000000e+00  -3.4154757607992548e-05 -5.7718245329527505e-05 0.0000000000000000e+00  -4.3274019617202461e-05 -9.7415227391246920e-05 0.0000000000000000e+00  -5.1320287806456940e-05 -1.4564338592239356e-04 0.0000000000000000e+00  -5.8363316310560694e-05 -2.0135468725580223e-04 0.0000000000000000e+00  -6.4469500801027908e-05 -2.6358089017040583e-04 0.0000000000000000e+00  -6.9705846750341011e-05 -3.3141832644615645e-04 0.0000000000000000e+00  -7.4139248908551325e-05 -4.0403066428036904e-04 0.0000000000000000e+00  -7.7836622129739887e-05 -4.8064840653027605e-04 0.0000000000000000e+00  -8.0864877617670448e-05 -5.6056898181784274e-04 0.0000000000000000e+00  -8.3290927238900296e-05 -6.4315672798773485e-04 0.0000000000000000e+00  -8.5181682739642080e-05 -7.2784289511088084e-04 0.0000000000000000e+00  -8.6604055887959760e-05 -8.1412564493910859e-04 0.0000000000000000e+00  -8.7624958447950427e-05 -9.0157005100417005e-04 0.0000000000000000e+00  -8.8311302184430651e-05 -9.8980809859976053e-04 0.0000000000000000e+00  -8.8729998862086017e-05 -1.0785386847847825e-03 0.0000000000000000e+00  -8.8947960245625880e-05 -1.1675276183827534e-03 0.0000000000000000e+00  -8.9032098099755408e-05 -1.2566076199819116e-03 0.0000000000000000e+00  -8.9049324189180147e-05 -1.3456783219352023e-03 0.0000000000000000e+00  0.0000000000000000e+00 0.0000000000000000e+00 0.0000000000000000e+00  -6.0527021990932777e-20 -6.3739079754320468e-06 0.0000000000000000e+00  -1.3279508914243341e-19 -2.6035503871578532e-05 0.0000000000000000e+00  -1.9954026483705961e-19 -5.6254705589691323e-05 0.0000000000000000e+00  -2.7108891967147103e-19 -9.6131500753165731e-05 0.0000000000000000e+00  -3.2955430499221694e-19 -1.4451264964567706e-04 0.0000000000000000e+00  -3.9371418604074559e-19 -2.0036995242928455e-04 0.0000000000000000e+00  -4.3523416650870846e-19 -2.6273156662626792e-04 0.0000000000000000e+00  -5.1284293683765412e-19 -3.3069447790188476e-04 0.0000000000000000e+00  -5.7845818935342700e-19 -4.0342223572656263e-04 0.0000000000000000e+00  -6.4574645213123463e-19 -4.8014536451494461e-04 0.0000000000000000e+00  -7.5366427555182122e-19 -5.6016128897478572e-04 0.0000000000000000e+00  -8.2503456640420418e-19 -6.4283434766146071e-04 0.0000000000000000e+00  -8.8159252896652138e-19 -7.2759579051685352e-04 0.0000000000000000e+00  -8.8698317720497230e-19 -8.1394377931622258e-04 0.0000000000000000e+00  -9.1218406782655815e-19 -9.0144338758706545e-04 0.0000000000000000e+00  -1.0040663469108061e-18 -9.8972660062385015e-04 0.0000000000000000e+00  -1.0373312722539820e-18 -1.0784923154853394e-03 0.0000000000000000e+00  -1.0707038601012951e-18 -1.1675063409950753e-03 0.0000000000000000e+00  -9.8449134149573634e-19 -1.2566013977412926e-03 0.0000000000000000e+00  -9.2174022551687892e-19 -1.3456771180769354e-03 0.0000000000000000e+00  0.0000000000000000e+00 0.0000000000000000e+00 0.0000000000000000e+00  1.2390352360624351e-05 -8.5514443851916272e-06 0.0000000000000000e+00  2.3911244294989804e-05 -2.7596445144658752e-05 0.0000000000000000e+00  3.4154757607992141e-05 -5.7718245329527477e-05 0.0000000000000000e+00  4.3274019617201932e-05 -9.7415227391246838e-05 0.0000000000000000e+00  5.1320287806456276e-05 -1.4564338592239353e-04 0.0000000000000000e+00  5.8363316310559901e-05 -2.0135468725580220e-04 0.0000000000000000e+00  6.4469500801026946e-05 -2.6358089017040578e-04 0.0000000000000000e+00  6.9705846750339981e-05 -3.3141832644615628e-04 0.0000000000000000e+00  7.4139248908550160e-05 -4.0403066428036866e-04 0.0000000000000000e+00  7.7836622129738572e-05 -4.8064840653027583e-04 0.0000000000000000e+00  8.0864877617668998e-05 -5.6056898181784263e-04 0.0000000000000000e+00  8.3290927238898548e-05 -6.4315672798773485e-04 0.0000000000000000e+00  8.5181682739640224e-05 -7.2784289511088095e-04 0.0000000000000000e+00  8.6604055887957903e-05 -8.1412564493910881e-04 0.0000000000000000e+00  8.7624958447948516e-05 -9.0157005100416983e-04 0.0000000000000000e+00  8.8311302184428659e-05 -9.8980809859976053e-04 0.0000000000000000e+00  8.8729998862084012e-05 -1.0785386847847825e-03 0.0000000000000000e+00  8.8947960245623902e-05 -1.1675276183827532e-03 0.0000000000000000e+00  8.9032098099753510e-05 -1.2566076199819120e-03 0.0000000000000000e+00  8.9049324189178182e-05 -1.3456783219352023e-03 0.0000000000000000e+00  </DataArray> 
</PointData> 
</Piece>
</UnstructuredGrid>
</VTKFile>