<?xml version="1.0"?>
<VTKFile type="UnstructuredGrid"  version="0.1"  >
<UnstructuredGrid>
<Piece  NumberOfPoints="433" NumberOfCells="749">
<Points>
<DataArray  type="Float64"  NumberOfComponents="3"  format="ascii">-0.075 0 0  -0.09 0 0  0 0.075 0  0 0.09 0  -0.07749999999999639 0 0  -0.07999999999998646 0 0  -0.08249999999998103 0 0  -0.08499999999998645 0 0  -0.08749999999999278 0 0  0 0.07749999999999639 0  0 0.07999999999998646 0  0 0.08249999999998103 0  0 0.08499999999998645 0  0 0.08749999999999278 0  -0.07495811727955622 0.002506123281942567 0  -0.07483251589590675 0.005009447543278963 0  -0.07462333612987612 0.007507176889318996 0  -0.07433081160842164 0.009996521676729792 0  -0.07395526904393597 0.01247470162525118 0  -0.07349712786972563 0.01493894892223676 0  -0.07295689977144719 0.01738651131593137 0  -0.07233518811456828 0.01981465519331636 0  -0.07163268727188714 0.02222066862648416 0  -0.07085018184678903 0.02460186440652264 0  -0.06998854579968822 0.02695558303663536 0  -0.0690487414675645 0.02927919571548095 0  -0.06803181849229657 0.03157010726353671 0  -0.06693891264673305 0.03382575902582295 0  -0.06577124456777726 0.03604363172608484 0  -0.06453011839127269 0.03822124828427676 0  -0.06321692029677325 0.04035617658043708 0  -0.06183311695969129 0.04244603217085358 0  -0.06038025391035727 0.04448848095542019 0  -0.05885995380997007 0.04648124178083229 0  -0.05727391464708927 0.04842208897804733 0  -0.05562390781984606 0.05030885487515362 0  -0.05391177617736313 0.05213943219293725 0  -0.05213943196064988 0.05391177640201408 0  -0.05030885464501876 0.05562390802799076 0  -0.04842208875339741 0.05727391483701899 0  -0.04648124156111814 0.05885995398347661 0  -0.04448848075057723 0.06038025406128662 0  -0.04244603197180736 0.06183311709632879 0  -0.04035617638849847 0.06321692041930228 0  -0.03822124809864088 0.06453011850122499 0  -0.0360436315504515 0.06577124466402698 0  -0.03382575884828561 0.0669389127364467 0  -0.03157010709491195 0.06803181857054676 0  -0.02927919555367265 0.06904874153617714 0  -0.02695558288636049 0.0699885458575655 0  -0.02460186426453365 0.07085018189609299 0  -0.02222066850172165 0.07163268731058885 0  -0.01981465508202493 0.07233518814505416 0  -0.01738651122047044 0.07295689979419667 0  -0.01493894883901457 0.07349712788664128 0  -0.01247470156079826 0.07395526905480783 0  -0.009996521626141067 0.07433081161522517 0  -0.007507176851571576 0.07462333613367354 0  -0.005009447516060501 0.07483251589772881 0  -0.002506123268183811 0.07495811728001622 0  -0.0899645963742958 0.002524163071205547 0  -0.08985841335089052 0.005046340264042189 0  -0.08968153446904799 0.007564547261862569 0  -0.08943409888777125 0.01007680287255576 0  -0.08911630127597117 0.01258113058871627 0  -0.08872839166019254 0.01507556013538031 0  -0.08827067522730371 0.01755812902663218 0  -0.08774351208429579 0.02002688410894299 0  -0.08714731697549832 0.02247988309515903 0  -0.08648255895550024 0.02491519609612614 0  -0.08574976102062974 0.0273309071365164 0  -0.0849494996983149 0.02972511566009441 0  -0.08408240459276443 0.03209593802802249 0  -0.08314915788532473 0.03444150901109495 0  -0.08215049380893638 0.03675998322834083 0  -0.08108719805771389 0.03904953663168204 0  -0.07996010717904113 0.04130836791639497 0  -0.07877010790633669 0.04353469995789643 0  -0.07751813646875386 0.04572678119452155 0  -0.07620517784835112 0.04788288701719196 0  -0.07483226501559699 0.05000132110890126 0  -0.07340047810466495 0.05208041679947078 0  -0.07191094357237759 0.05411853836284126 0  -0.07036483330343213 0.05611408231611922 0  -0.06876336369699096 0.05806547866913129 0  -0.06710779470294803 0.05997119216846514 0  -0.06539942883595723 0.06182972349873934 0  -0.06363961015120059 0.06363961046237793 0  -0.06182972319003133 0.065399429127815 0  -0.05997119186647147 0.06710779497282608 0  -0.05806547837541865 0.06876336394500916 0  -0.05611408202852537 0.07036483353278059 0  -0.05411853808512605 0.07191094378137974 0  -0.05208041652753923 0.07340047829761066 0  -0.05000132084351008 0.07483226519292571 0  -0.04788288675993079 0.07620517800999904 0  -0.04572678094644674 0.07751813661508945 0  -0.04353469971974386 0.07877010803795897 0  -0.04130836768323542 0.07996010729949422 0  -0.03904953640937208 0.08108719816477272 0  -0.03675998301634555 0.08215049390379818 0  -0.03444150881343844 0.08314915796719675 0  -0.03209593784904181 0.08408240466108496 0  -0.02972511549084878 0.08494949975753653 0  -0.02733090698523612 0.08574976106884712 0  -0.02491519595432643 0.08648255899635204 0  -0.02247988297258634 0.08714731700711628 0  -0.02002688399922625 0.08774351210933794 0  -0.01755812893234683 0.08827067524605826 0  -0.0150755600588864 0.0887283916731894 0  -0.0125811305237414 0.08911630128514413 0  -0.01007680282539007 0.08943409889308557 0  -0.007564547219350083 0.08968153447263388 0  -0.005046340237807586 0.08985841335236384 0  -0.002524163055248866 0.08996459637474352 0  -0.02638495842597087 0.07230431635354724 0  -0.0724577439499985 0.02652492242708277 0  -0.03820861825336661 0.06692469090417869 0  -0.06696516331047203 0.03813917166699644 0  -0.01405844856432208 0.07588144705676292 0  -0.07586687301989076 0.01403253024520789 0  -0.04924696735161161 0.05974614252237344 0  -0.06021958411766227 0.04897686669376328 0  -0.05441272986917846 0.05492262075115664 0  -0.00844934112920359 0.0873244178471272 0  -0.08729789229900929 0.008464129946291274 0  -0.04970250625639185 0.07250192633458045 0  -0.07225782505680187 0.04986880053115327 0  -0.02296277068007322 0.08486486284184186 0  -0.08488692372186042 0.0231226822119872 0  -0.03698391859303625 0.0796360346367147 0  -0.07972474870226534 0.0369892874805849 0  -0.05940869453503514 0.06453221453772266 0  -0.06490206229372125 0.05928808861035652 0  -0.008981178664023997 0.07662539604324109 0  -0.07664595922227485 0.008958121299613531 0  -0.04258816427365257 0.06434477530512171 0  -0.06428715446119834 0.04252382049424455 0  -0.02162604536010116 0.07406760646907401 0  -0.07397451969612889 0.02135682807509871 0  -0.03138408360305744 0.07050614139179145 0  -0.07048589876008068 0.03115502976771903 0  -0.01598032769589888 0.08617825082311938 0  -0.08660024321334667 0.0160894102045897 0  -0.04331010890544199 0.07643174923285871 0  -0.07609327348337597 0.04334023680275891 0  -0.03051788553280029 0.08257098137643742 0  -0.08271310263132355 0.03026971043274087 0  -0.05375736240702735 0.06951197410995086 0  -0.06920756519403341 0.054087928802809 0  -0.08136110420648507 0.002100918817116135 0  -0.002104074538917174 0.08135563831841353 0  -0.002107394087757469 0.08614851770253515 0  -0.08614851770346527 0.002107394088979892 0  -0.003871489049976906 0.07698495052014692 0  -0.0769910397421079 0.00385948776992385 0  -0.07688728881086862 0.00640286972707272 0  -0.07893649500296317 0.007888228365438177 0  -0.07864915707867078 0.01047250004881588 0  -0.08094391562081626 0.009443774315006905 0  -0.08069474783762076 0.01195513673789902 0  -0.08297737961670854 0.01093176429149574 0  -0.08128219298667763 0.006578873604308153 0  -0.08275172677495995 0.01332485777152258 0  -0.08047461461893209 0.01442075193384382 0  -0.08250281832103598 0.01582503173333389 0  -0.0801798508992084 0.01692288022570923 0  -0.08227846703149519 0.01838558084864741 0  -0.08000649587631861 0.01941806405126648 0  -0.07784981364433481 0.01797321471140479 0  -0.07781688244144731 0.02047032659290448 0  -0.07979595102222629 0.02191953152403004 0  -0.07761550638135029 0.02297190650657709 0  -0.07956654754963287 0.02442216777099992 0  -0.07729568064420198 0.02544299754927018 0  -0.07925671812803066 0.0269148247247648 0  -0.07691229579790623 0.02785633329464377 0  -0.08148429307162043 0.0260605848752796 0  -0.08500496268260241 0.01220291849691744 0  -0.07899342881414922 0.02945319057611401 0  -0.07677368992600604 0.03047081008665916 0  -0.07875567804452421 0.03201256652717756 0  -0.07652114920627114 0.03298900563087183 0  -0.07448390588478056 0.0315143000719238 0  -0.07425747655082893 0.03405756216124611 0  -0.07617998602782436 0.03547827613122414 0  -0.07399974060085804 0.03652227476182263 0  -0.07591872554930332 0.0379739798393865 0  -0.07376278025185565 0.03902849314151225 0  -0.07195315437546659 0.03505995835630459 0  -0.07583275830085115 0.01946939609326507 0  -0.07580535264791899 0.04049055758758097 0  -0.07368014209012524 0.0416997122716355 0  -0.07358528653236289 0.04429701585170327 0  -0.07141024741087292 0.0429192176828169 0  -0.07134440097214217 0.04546771052721902 0  -0.06916083076124513 0.04416617039648697 0  -0.06913992148127565 0.04669256602398839 0  -0.06700307365663324 0.04547199862024669 0  -0.06697698678154426 0.04798053919417636 0  -0.06442612578036658 0.04672965622075619 0  -0.06479460701302922 0.04923275855856989 0  -0.06940145869271838 0.04164632533082279 0  -0.0669041093304743 0.05049050832231084 0  -0.06476708434368587 0.05174544501325212 0  -0.0626053304774315 0.05050076480458388 0  -0.06258716802991651 0.05299425501099465 0  -0.06475761419610929 0.05426406870473277 0  -0.06257035798967708 0.05550636916968502 0  -0.06040115361718552 0.05423297582802825 0  -0.06038269812542003 0.05674715519414873 0  -0.05828284087882953 0.05556142732023424 0  -0.05820587586405271 0.05800288707589824 0  -0.06044363154687012 0.05938551944493032 0  -0.05816988287279336 0.0604906765951877 0  -0.05600706511047171 0.05922913984327231 0  -0.05596508768050693 0.06170602455294535 0  -0.05381763137757934 0.06046850448334422 0  -0.05379901176280132 0.06297793096447361 0  -0.05642039378601944 0.06436433979103269 0  -0.05379899974755759 0.06542325021849027 0  -0.05158214200919133 0.06408958772660185 0  -0.05152115554309931 0.06660183035856777 0  -0.04940393230392151 0.06542027135813852 0  -0.04935511480283617 0.067904794189971 0  -0.04717032355644686 0.06669497789703963 0  -0.04716018009828919 0.06915341254143532 0  -0.04498321112258373 0.06795037291047179 0  -0.0449996171019548 0.07044872070718851 0  -0.04273576573207716 0.069227277
[...]
<PointData  Vectors="f_32"> 
<DataArray  type="Float64"  Name="f_32"  NumberOfComponents="3" format="ascii">-6.0514019325287847e-05 0.0000000000000000e+00 0.0000000000000000e+00  -5.5317894218673039e-05 0.0000000000000000e+00 0.0000000000000000e+00  -1.7739325730873823e-22 6.0513556493386408e-05 0.0000000000000000e+00  0.0000000000000000e+00 5.5317431412251205e-05 0.0000000000000000e+00  -5.9475721392985409e-05 0.0000000000000000e+00 0.0000000000000000e+00  -5.8437423460685594e-05 0.0000000000000000e+00 0.0000000000000000e+00  -5.7399125528383909e-05 0.0000000000000000e+00 0.0000000000000000e+00  -5.6705381758480534e-05 0.0000000000000000e+00 0.0000000000000000e+00  -5.6011637988576908e-05 0.0000000000000000e+00 0.0000000000000000e+00  0.0000000000000000e+00 5.9475258571405981e-05 0.0000000000000000e+00  0.0000000000000000e+00 5.8436960649428177e-05 0.0000000000000000e+00  0.0000000000000000e+00 5.7398662727448503e-05 0.0000000000000000e+00  0.0000000000000000e+00 5.6704918955716323e-05 0.0000000000000000e+00  0.0000000000000000e+00 5.6011175183983886e-05 0.0000000000000000e+00  -6.0223962323301520e-05 2.0191858962813074e-06 0.0000000000000000e+00  -5.9966013211985544e-05 4.0449316000460509e-06 0.0000000000000000e+00  -5.9740460087654424e-05 6.0749746110819807e-06 0.0000000000000000e+00  -5.9547554864224660e-05 8.1070476317106032e-06 0.0000000000000000e+00  -5.9254288649973002e-05 1.0101745423465677e-05 0.0000000000000000e+00  -5.8680529708604068e-05 1.2015827685080287e-05 0.0000000000000000e+00  -5.8136217822923680e-05 1.3938374727517080e-05 0.0000000000000000e+00  -5.7621960919430861e-05 1.5867239312505741e-05 0.0000000000000000e+00  -5.7138333357701863e-05 1.7800267143625474e-05 0.0000000000000000e+00  -5.6478640598047071e-05 1.9671694115267307e-05 0.0000000000000000e+00  -5.5707501000751228e-05 2.1513007935394999e-05 0.0000000000000000e+00  -5.4962639408971327e-05 2.3367651887115725e-05 0.0000000000000000e+00  -5.4244887738253118e-05 2.5233554569227380e-05 0.0000000000000000e+00  -5.3555047625337923e-05 2.7108632007237501e-05 0.0000000000000000e+00  -5.2508442575463026e-05 2.8800133517408079e-05 0.0000000000000000e+00  -5.1442299185152327e-05 3.0488578601000872e-05 0.0000000000000000e+00  -5.0400296937503400e-05 3.2193949824125332e-05 0.0000000000000000e+00  -4.9383599616665542e-05 3.3914342503778615e-05 0.0000000000000000e+00  -4.8319040696602971e-05 3.5595675819146007e-05 0.0000000000000000e+00  -4.6979983808990042e-05 3.7086962569741718e-05 0.0000000000000000e+00  -4.5661797783269292e-05 3.8600048451844021e-05 0.0000000000000000e+00  -4.4365954860480716e-05 4.0133243546694690e-05 0.0000000000000000e+00  -4.3093902333492846e-05 4.1684835469075523e-05 0.0000000000000000e+00  -4.1685038886702010e-05 4.3093590359737931e-05 0.0000000000000000e+00  -4.0133350607391274e-05 4.4365521626337366e-05 0.0000000000000000e+00  -3.8600063199507418e-05 4.5661238774745156e-05 0.0000000000000000e+00  -3.7086889148168779e-05 4.6979294655240364e-05 0.0000000000000000e+00  -3.5595518478435472e-05 4.8318217165095152e-05 0.0000000000000000e+00  -3.3914200201584349e-05 4.9382816700805389e-05 0.0000000000000000e+00  -3.2193846113314281e-05 5.0399597550635448e-05 0.0000000000000000e+00  -3.0488512838535988e-05 5.1441681630041592e-05 0.0000000000000000e+00  -2.8800105021418965e-05 5.2507905061273164e-05 0.0000000000000000e+00  -2.7108636326961499e-05 5.3554580643125190e-05 0.0000000000000000e+00  -2.5233557958199233e-05 5.4244421655077652e-05 0.0000000000000000e+00  -2.3367654397018167e-05 5.4962174190344135e-05 0.0000000000000000e+00  -2.1513009624409379e-05 5.5707036609063614e-05 0.0000000000000000e+00  -1.9671695036131891e-05 5.6478176997309926e-05 0.0000000000000000e+00  -1.7800267593181513e-05 5.7137870244826971e-05 0.0000000000000000e+00  -1.5867239658962630e-05 5.7621497887497075e-05 0.0000000000000000e+00  -1.3938374978447652e-05 5.8135754868652278e-05 0.0000000000000000e+00  -1.2015827843476954e-05 5.8680066829917679e-05 0.0000000000000000e+00  -1.0101745500356218e-05 5.9253825842420236e-05 0.0000000000000000e+00  -8.1070476750729845e-06 5.9547092072045440e-05 0.0000000000000000e+00  -6.0749746415145218e-06 5.9739997285969069e-05 0.0000000000000000e+00  -4.0449316171536508e-06 5.9965550400709912e-05 0.0000000000000000e+00  -2.0191859039525045e-06 6.0223499501879951e-05 0.0000000000000000e+00  -5.5071632390112717e-05 1.5365733788954462e-06 0.0000000000000000e+00  -5.4845213143180989e-05 3.0719378629020504e-06 0.0000000000000000e+00  -5.4638814612649167e-05 4.6048855078222248e-06 0.0000000000000000e+00  -5.4452599181953043e-05 6.1342102715064547e-06 0.0000000000000000e+00  -5.4215934087310120e-05 7.6524544766115828e-06 0.0000000000000000e+00  -5.3859376836598351e-05 9.1621338310845757e-06 0.0000000000000000e+00  -5.3525332519946094e-05 1.0679551305528028e-05 0.0000000000000000e+00  -5.3214063945710193e-05 1.2203513076360840e-05 0.0000000000000000e+00  -5.2925816003700068e-05 1.3732820170308839e-05 0.0000000000000000e+00  -5.2538878111004317e-05 1.5207433314121929e-05 0.0000000000000000e+00  -5.2108785948081759e-05 1.6663266284169492e-05 0.0000000000000000e+00  -5.1695702182848541e-05 1.8130124606520168e-05 0.0000000000000000e+00  -5.1299951808109018e-05 1.9606854233217845e-05 0.0000000000000000e+00  -5.0921846177822475e-05 2.1092293356750740e-05 0.0000000000000000e+00  -5.0159695532418652e-05 2.2427272581913859e-05 0.0000000000000000e+00  -4.9416086725541742e-05 2.3768742344797168e-05 0.0000000000000000e+00  -4.8691604790947708e-05 2.5115647244861805e-05 0.0000000000000000e+00  -4.7986819711278453e-05 2.6466927611157951e-05 0.0000000000000000e+00  -4.7221632906769908e-05 2.7788666306802961e-05 0.0000000000000000e+00  -4.6315040534106263e-05 2.9053975411381349e-05 0.0000000000000000e+00  -4.5428575002572126e-05 3.0331066313307050e-05 0.0000000000000000e+00  -4.4562933735638110e-05 3.1618934266006275e-05 0.0000000000000000e+00  -4.3718797775531316e-05 3.2916566040828956e-05 0.0000000000000000e+00  -4.2743160179461296e-05 3.4097327587259079e-05 0.0000000000000000e+00  -4.1708933955751008e-05 3.5230230575592582e-05 0.0000000000000000e+00  -4.0692834237840920e-05 3.6378620503173829e-05 0.0000000000000000e+00  -3.9695660439660160e-05 3.7541593877139995e-05 0.0000000000000000e+00  -3.8718197086547817e-05 3.8718235729240081e-05 0.0000000000000000e+00  -3.7541485660960109e-05 3.9695548592750686e-05 0.0000000000000000e+00  -3.6378448172096592e-05 4.0692568554458284e-05 0.0000000000000000e+00  -3.5229999636727776e-05 4.1708511211398924e-05 0.0000000000000000e+00  -3.4097043591665680e-05 4.2742577275183254e-05 0.0000000000000000e+00  -3.2916270269503007e-05 4.3718120468500908e-05 0.0000000000000000e+00  -3.1618700343549980e-05 4.4562298665609386e-05 0.0000000000000000e+00  -3.0330894782780353e-05 4.5427982354205879e-05 0.0000000000000000e+00  -2.9053866767251324e-05 4.6314490458335970e-05 0.0000000000000000e+00  -2.7788620993711354e-05 4.7221125521251630e-05 0.0000000000000000e+00  -2.6466907042209307e-05 4.7986330666537084e-05 0.0000000000000000e+00  -2.5115631984754791e-05 4.8691121911277546e-05 0.0000000000000000e+00  -2.3768732389507043e-05 4.9415610039287254e-05 0.0000000000000000e+00  -2.2427267919368190e-05 5.0159225065072284e-05 0.0000000000000000e+00  -2.1092293973352481e-05 5.0921381948486411e-05 0.0000000000000000e+00  -1.9606854771070715e-05 5.1299487949365657e-05 0.0000000000000000e+00  -1.8130125039843918e-05 5.1695238710996234e-05 0.0000000000000000e+00  -1.6663266598102999e-05 5.2108322876541438e-05 0.0000000000000000e+00  -1.5207433483681066e-05 5.2538415455771874e-05 0.0000000000000000e+00  -1.3732820234455247e-05 5.2925353606425898e-05 0.0000000000000000e+00  -1.2203513128332090e-05 5.3213601468488994e-05 0.0000000000000000e+00  -1.0679551344214613e-05 5.3524869960120887e-05 0.0000000000000000e+00  -9.1621338552217198e-06 5.3858914191546620e-05 0.0000000000000000e+00  -7.6524544797175967e-06 5.4215471355691141e-05 0.0000000000000000e+00  -6.1342102708854720e-06 5.4452136414520941e-05 0.0000000000000000e+00  -4.6048855030304900e-06 5.4638351836251581e-05 0.0000000000000000e+00  -3.0719378609994441e-06 5.4844750356775933e-05 0.0000000000000000e+00  -1.5365733762184507e-06 5.5071169594045101e-05 0.0000000000000000e+00  -2.0195360900764374e-05 5.5506236619858357e-05 0.0000000000000000e+00  -5.5423177129651510e-05 2.0220220612504457e-05 0.0000000000000000e+00  -2.9239895149258011e-05 5.1367678229854112e-05 0.0000000000000000e+00  -5.1402182757002464e-05 2.9185616515475742e-05 0.0000000000000000e+00  -1.0773430559106868e-05 5.8218745005569271e-05 0.0000000000000000e+00  -5.8231061509036314e-05 1.0758175889417798e-05 0.0000000000000000e+00  -3.7431596330508676e-05 4.5519599781032466e-05 0.0000000000000000e+00  -4.5737145996611162e-05 3.7075670740427074e-05 0.0000000000000000e+00  -4.1570644897099267e-05 4.1929686158924178e-05 0.0000000000000000e+00  -5.1456566857394649e-06 5.5203639135707541e-05 0.0000000000000000e+00  -5.5212035270720900e-05 5.1593206389098747e-06 0.0000000000000000e+00  -3.1182620094193191e-05 4.5683533615035184e-05 0.0000000000000000e+00  -4.5621603177232319e-05 3.1338787791801930e-05 0.0000000000000000e+00  -1.4542212067405566e-05 5.3382970174028250e-05 0.0000000000000000e+00  -5.3331733803925448e-05 1.4636862438446251e-05 0.0000000000000000e+00  -2.3282123037059827e-05 5.0368994268795364e-05 0.0000000000000000e+00  -5.0357034115639376e-05 2.3257894633516619e-05 0.0000000000000000e+00  -3.7445133492427017e-05 4.0788877221647444e-05 0.0000000000000000e+00  -4.0871083999531420e-05 3.7250840521319060e-05 0.0000000000000000e+00  -7.0493019770175118e-06 5.8800389286777231e-05 0.0000000000000000e+00  -5.8795864457436496e-05 7.0286012072210423e-06 0.0000000000000000e+00  -3.2679049351987073e-05 4.9226141953456618e-05 0.0000000000000000e+00  -4.9261512487300388e-05 3.2678196925774144e-05 0.0000000000000000e+00  -1.6727319516035941e-05 5.6571052557446206e-05 0.0000000000000000e+00  -5.6684951902081262e-05 1.6580716637257160e-05 0.0000000000000000e+00  -2.4092995818230995e-05 5.3862524581596756e-05 0.0000000000000000e+00  -5.3957190869037018e-05 2.3956850551863830e-05 0.0000000000000000e+00  -1.0211317021969776e-05 5.4429623976803410e-05 0.0000000000000000e+00  -5.4286960046129280e-05 1.0185953724950465e-05 0.0000000000000000e+00  -2.7241424352094935e-05 4.8290638751202911e-05 0.0000000000000000e+00  -4.8303070438560388e-05 2.7407830481936144e-05 0.0000000000000000e+00  -1.9300970051249950e-05 5.1934970053078792e-05 0.0000000000000000e+00  -5.1967711619310108e-05 1.9129740025364653e-05 0.0000000000000000e+00  -3.3902926002211686e-05 4.3803157855054976e-05 0.0000000000000000e+00  -4.3628159237205740e-05 3.4165951613197993e-05 0.0000000000000000e+00  -5.7660490208157534e-05 1.5574998403028119e-06 0.0000000000000000e+00  -1.5598392997939007e-06 5.7661979594015844e-05 0.0000000000000000e+00  -1.2828670642788706e-06 5.6172404763933901e-05 0.0000000000000000e+00  -5.6172867559780997e-05 1.2828670591482690e-06 0.0000000000000000e+00  -2.9035691433721223e-06 5.9287753866102650e-05 0.0000000000000000e+00  -5.9287371316074740e-05 2.8932800245303361e-06 0.0000000000000000e+00  -5.9016241009104450e-05 4.9489303898883387e-06 0.0000000000000000e+00  -5.8048436679822873e-05 5.9101117038514462e-06 0.0000000000000000e+00  -5.7701464531917200e-05 7.7452276261856968e-06 0.0000000000000000e+00  -5.7128501258976532e-05 6.6809103668241660e-06 0.0000000000000000e+00  -5.6744561477022649e-05 8.4424957047748265e-06 0.0000000000000000e+00  -5.6276866384882742e-05 7.4312021037618441e-06 0.0000000000000000e+00  -5.7364986864026399e-05 4.6690518073651950e-06 0.0000000000000000e+00  -5.5907636470291203e-05 9.1082431282769527e-06 0.0000000000000000e+00  -5.6360605815100528e-05 1.0168696085352565e-05 0.0000000000000000e+00  -5.5525650644689244e-05 1.0862094826746509e-05 0.0000000000000000e+00  -5.5991387806739128e-05 1.1930062093885697e-05 0.0000000000000000e+00  -5.5110645237675687e-05 1.2401017305364128e-05 0.0000000000000000e+00  -5.5483193582174864e-05 1.3512326390456690e-05 0.0000000000000000e+00  -5.6498688587786271e-05 1.3136112809725101e-05 0.0000000000000000e+00  -5.5730981118636363e-05 1.4774014119739248e-05 0.0000000000000000e+00  -5.4795766604755038e-05 1.5128764762775661e-05 0.0000000000000000e+00  -5.4975176671958226e-05 1.6330630766876066e-05 0.0000000000000000e+00  -5.4112113543980709e-05 1.6750544805393714e-05 0.0000000000000000e+00  -5.4308523730575471e-05 1.7944365695818564e-05 0.0000000000000000e+00  -5.3448942129288260e-05 1.8385743756910871e-05 0.0000000000000000e+00  -5.3684664043993237e-05 1.9547922269468790e-05 0.0000000000000000e+00  -5.3213140767152797e-05 1.7306728486410972e-05 0.0000000000000000e+00  -5.5466220904322626e-05 8.0330810041707910e-06 0.0000000000000000e+00  -5.2819841885931700e-05 1.9923752449541008e-05 0.0000000000000000e+00  -5.2979104853318487e-05 2.1156522166866663e-05 0.0000000000000000e+00  -5.2268219032908057e-05 2.1291559880985828e-05 0.0000000000000000e+00  -5.2249444377797818e-05 2.2433586534683073e-05 0.0000000000000000e+00  -5.3066378581643055e-05 2.2494818909933745e-05 0.0000000000000000e+00  -5.2042384788962684e-05 2.3801586295281338e-05 0.0000000000000000e+00  -5.1345467739960578e-05 2.3647433478407390e-05 0.0000000000000000e+00  -5.1101614345713947e-05 2.5093749885216736e-05 0.0000000000000000e+00  -5.0402769061134271e-05 2.4924876153900913e-05 0.0000000000000000e+00  -5.0143245875090799e-05 2.6396394458003814e-05 0.0000000000000000e+00  -5.1970320118664113e-05 2.5342289666890506e-05 0.0000000000000000e+00  -5.6672109355192601e-05 1.4735582183303330e-05 0.0000000000000000e+00  -4.9431732742771835e-05 2.6176964533608922e-05 0.0000000000000000e+00  -4.9109905173537924e-05 2.7708491533062932e-05 0.0000000000000000e+00  -4.8071221757274105e-05 2.8913409760802216e-05 0.0000000000000000e+00  -4.8794163657262310e-05 2.9309933869306040e-05 0.0000000000000000e+00  -4.7657989604236530e-05 3.0225114859566410e-05 0.0000000000000000e+00  -4.8298259075770491e-05 3.0716557968098606e-05 0.0000000000000000e+00  -4.7106947717262163e-05 3.1610733291887746e-05 0.0000000000000000e+00  -4.7586830850303367e-05 3.2244682336226988e-05 0.0000000000000000e+00  -4.6358227444035067e-05 3.3106331784654205e-05 0.0000000000000000e+00  -4.7006944752158290e-05 3.4044987407155126e-05 0.0000000000000000e+00  -4.5635595026611878e-05 3.4605489947348349e-05 0.0000000000000000e+00  -4.9491528745626890e-05 2.9615294439225632e-05 0.0000000000000000e+00  -4.5171239239098819e-05 3.4019864192402224e-05 0.0000000000000000e+00  -4.4439781215676282e-05 3.5491385347762383e-05 0.0000000000000000e+00  -4.5034782033305629e-05 3.6195795504510492e-05 0.0000000000000000e+00  -4.3708391368093799e-05 3.6981482919388340e-05 0.0000000000000000e+00  -4.3250250934085340e-05 3.6291440169926579e-05 0.0000000000000000e+00  -4.2514259035506966e-05 3.7548256741098766e-05 0.0000000000000000e+00  -4.2761616047288736e-05 3.8414585986767738e-05 0.0000000000000000e+00  -4.1451461063068502e-05 3.8889223098736547e-05 0.0000000000000000e+00  -4.1720391111551728e-05 3.9802299533687597e-05 0.0000000000000000e+00  -4.0373799156842563e-05 4.0230451422812582e-05 0.0000000000000000e+00  -4.0157058448155606e-05 3.9411217130258718e-05 0.0000000000000000e+00  -3.9133714636211393e-05 4.0768950011960233e-05 0.0000000000000000e+00  -3.9321014870935502e-05 4.1591284653684151e-05 0.0000000000000000e+00  -3.8070206972232721e-05 4.2115584460046921e-05 0.0000000000000000e+00  -3.8321252518515343e-05 4.3007801493738888e-05 0.0000000000000000e+00  -3.7013105975196615e-05 4.3352425002684116e-05 0.0000000000000000e+00  -3.6912182698015951e-05 4.2198340482091846e-05 0.0000000000000000e+00  -3.5891358367665945e-05 4.3514875605771358e-05 0.0000000000000000e+00  -3.5761290320617778e-05 4.4471474167170536e-05 0.0000000000000000e+00  -3.4526311620287335e-05 4.4665254478526000e-05 0.0000000000000000e+00  -3.4356269333830352e-05 4.5584875884278669e-05 0.0000000000000000e+00  -3.3138939850961400e-05 4.5771103202125359e-05 0.0000000000000000e+00  -3.2958905531388465e-05 4.6720693838825709e-05 0.0000000000000000e+00  -3.1767711490100271e-05 4.6886990995288026e-05 0.0000000000000000e+00  -3.1587140539017565e-05 4.7833342430197290e-05 0.0000000000000000e+00  -3.0433042670820350e-05 4.7915321399545180e-05 0.0000000000000000e+00  -3.0187527115177201e-05 4.8981580923746225e-05 0.0000000000000000e+00  -2.9136901566383750e-05 4.8809501908086835e-05 0.0000000000000000e+00  -2.8597995988247735e-05 4.9774309577706929e-05 0.0000000000000000e+00  -2.7527619276676996e-05 4.9587910750272160e-05 0.0000000000000000e+00  -2.7047072643221025e-05 5.0515646909837425e-05 0.0000000000000000e+00  -2.5928368216620758e-05 5.0343118824019230e-05 0.0000000000000000e+00  -2.5463198068602023e-05 5.1267422777118702e-05 0.0000000000000000e+00  -3.4361389416935437e-05 4.6841898007483100e-05 0.0000000000000000e+00  -2.4339440998737174e-05 5.1119234826341975e-05 0.0000000000000000e+00  -2.3865398997136264e-05 5.2029921732706639e-05 0.0000000000000000e+00  -2.2878545168849033e-05 5.1841868892760659e-05 0.0000000000000000e+00  -2.2291638030737331e-05 5.2795150342333423e-05 0.0000000000000000e+00  -2.1504756491823475e-05 5.2454766743197819e-05 0.0000000000000000e+00  -2.0780935916190516e-05 5.3205063537892913e-05 0.0000000000000000e+00  -2.6552812115265369e-05 5.1757970354969119e-05 0.0000000000000000e+00  -2.9536027597750545e-05 4.7685990717952339e-05 0.0000000000000000e+00  -4.3022833787448599e-05 3.9493232702932074e-05 0.0000000000000000e+00  -2.1565378362219422e-05 5.3852379173530653e-05 0.0000000000000000e+00  -3.9761298667356574e-05 4.2661454843721054e-05 0.0000000000000000e+00  -2.4785311929932975e-05 5.0152259677091018e-05 0.0000000000000000e+00  -2.0003176336536157e-05 5.2778857635464425e-05 0.0000000000000000e+00  -1.9105509905249549e-05 5.3584303735115490e-05 0.0000000000000000e+00  -1.8462779941009269e-05 5.3090889632800663e-05 0.0000000000000000e+00  -1.7431898294092197e-05 5.3958545286684987e-05 0.0000000000000000e+00  -1.8097614837267016e-05 5.4485809213827691e-05 0.0000000000000000e+00  -1.6399713947167218e-05 5.4832214450241628e-05 0.0000000000000000e+00  -1.5757176358748878e-05 5.4337271842122677e-05 0.0000000000000000e+00  -1.4722047383584616e-05 5.5221954949141802e-05 0.0000000000000000e+00  -1.4140176411703323e-05 5.4719163845911938e-05 0.0000000000000000e+00  -1.3063340000327658e-05 5.5577919773484860e-05 0.0000000000000000e+00  -1.3556394254385683e-05 5.6392434008450460e-05 0.0000000000000000e+00  -1.2619052325561912e-05 5.4749136331718715e-05 0.0000000000000000e+00  -1.1451708866309519e-05 5.5595668984559832e-05 0.0000000000000000e+00  -3.8897531615263960e-05 4.0017879501944885e-05 0.0000000000000000e+00  -2.2308862539138638e-05 5.1479256917545736e-05 0.0000000000000000e+00  -4.7026693413781662e-05 2.9706126768847305e-05 0.0000000000000000e+00  -3.5708171435421473e-05 4.2584134642146198e-05 0.0000000000000000e+00  -3.8719063441607348e-05 4.3892778791326329e-05 0.0000000000000000e+00  -4.9898660488303253e-05 2.7925280957649189e-05 0.0000000000000000e+00  -5.5452383516229635e-05 1.7427026610202317e-05 0.0000000000000000e+00  -5.8368623098357031e-05 3.8104712454879231e-06 0.0000000000000000e+00  -4.9777242582025344e-06 5.9024047999608326e-05 0.0000000000000000e+00  -5.9260784429702731e-06 5.8053530085299997e-05 0.0000000000000000e+00  -7.7206174606257545e-06 5.7693973212352332e-05 0.0000000000000000e+00  -6.6358033141379647e-06 5.7131057967127482e-05 0.0000000000000000e+00  -4.6042031851279874e-06 5.7363993793246873e-05 0.0000000000000000e+00  -8.3868938131282175e-06 5.6743653897788274e-05 0.0000000000000000e+00  -7.3659813471221638e-06 5.6279601260671772e-05 0.0000000000000000e+00  -9.2716767436606998e-06 5.5828534793583050e-05 0.0000000000000000e+00  -8.0063280847192255e-06 5.5438745869313998e-05 0.0000000000000000e+00  -9.5640388831549172e-06 5.7386257878499407e-05 0.0000000000000000e+00  -4.715322029370411