<?xml version="1.0"?>
<VTKFile type="UnstructuredGrid"  version="0.1"  >
<UnstructuredGrid>
<Piece  NumberOfPoints="92" NumberOfCells="134">
<Points>
<DataArray  type="Float64"  NumberOfComponents="3"  format="ascii">-0.075 0 0  -0.09 0 0  0 0.075 0  0 0.09 0  -0.07999999999998644 0 0  -0.08499999999998643 0 0  0 0.07999999999998644 0  0 0.08499999999998643 0  -0.07474383697425567 0.006193450925444714 0  -0.07397709775001875 0.01234459430212956 0  -0.07270501993294956 0.01841141158492219 0  -0.07093629310408846 0.02435246025868538 0  -0.06868299946361875 0.03012715692992863 0  -0.06596053129258345 0.03569605456629794 0  -0.06278748580660808 0.04102111195573553 0  -0.05918553811995802 0.04606595356063951 0  -0.05517929319363803 0.05079611798799719 0  -0.05079611775707205 0.0551792934062196 0  -0.04606595334058598 0.05918553829123255 0  -0.04102111175586211 0.0627874859371919 0  -0.03569605438235732 0.06596053139212713 0  -0.03012715675823488 0.0686829995389306 0  -0.02435246011438983 0.07093629315362519 0  -0.01841141148031854 0.0727050199594388 0  -0.01234459423463313 0.07397709776128192 0  -0.00619345089034835 0.07474383697716383 0  -0.08979018922611068 0.006141817217992752 0  -0.08916173513924668 0.01225499844793215 0  -0.08811756788165266 0.01831104122168723 0  -0.08666255584316451 0.02428170946886539 0  -0.08480348296067526 0.03013916517985287 0  -0.08254901709127598 0.03585609818795434 0  -0.07990966959640379 0.04140585351123164 0  -0.07689774633187542 0.04676255563031745 0  -0.07352729026958763 0.05190122913392129 0  -0.06981401603927061 0.05679791514191751 0  -0.06577523663622582 0.06142978304901046 0  -0.06142978273545064 0.06577523692907025 0  -0.0567979148459203 0.0698140162800822 0  -0.05190122885957071 0.07352729046324541 0  -0.04676255536909301 0.07689774649072954 0  -0.04140585327445114 0.07990966971909357 0  -0.03585609797936781 0.0825490171818779 0  -0.0301391650041359 0.0848034830231251 0  -0.02428170932925738 0.08666255588228085 0  -0.01831104111763263 0.08811756790327548 0  -0.01225499838084008 0.08916173514846829 0  -0.006141817184405124 0.08979018922840815 0  -0.004330127018916319 0.0824999999999864 0  -0.0824999999999864 0.004330127018916319 0  -0.05983923624059368 0.05983923652585579 0  -0.03165858729578221 0.0786946990389726 0  -0.07872524081015916 0.03104520696940684 0  -0.04114234032165317 0.06866409573704975 0  -0.0686700077492646 0.04079840227217053 0  -0.01655535927592288 0.07826963085643643 0  -0.07843105373316328 0.01638706086370402 0  -0.05155313040141713 0.06762463360617949 0  -0.06762463339828662 0.05155313066664759 0  -0.03515431705512618 0.0725203977712925 0  -0.07253762602368874 0.03468964198493132 0  -0.07671487308420466 0.02233881477809502 0  -0.0225095847979219 0.07654364589625741 0  -0.07943195604327669 0.009414715208838468 0  -0.009438757809827131 0.07940889563056273 0  -0.05234372687419039 0.06113221871544339 0  -0.06113221849494383 0.05234372712631709 0  -0.04663040404736121 0.07109376866942928 0  -0.07112556107764462 0.04619813803084988 0  -0.01442599787314108 0.08390186334940124 0  -0.08382206632063771 0.01426115146306744 0  -0.0204933443139015 0.08238925804256782 0  -0.08282024463239232 0.02018274135857693 0  -0.04645944445684499 0.06508129015942106 0  -0.06508757410778429 0.04633007726872668 0  -0.07446003681107351 0.04047979010680124 0  -0.04131308776649156 0.07440490046436581 0  -0.008263464661977842 0.08537711389280334 0  -0.08536765778820857 0.008231983179644841 0  -0.08086509386519901 0.0260612446109048 0  -0.05639275821951443 0.06483706841132622 0  -0.06483706816186412 0.05639275850194968 0  -0.02617825591255481 0.08099273186489056 0  -0.02869420710425672 0.07409003762815194 0  -0.0740940011490263 0.02863495081763865 0  -0.0558581185120876 0.05585811875236662 0  -0.03707758867424378 0.07761573683512048 0  -0.07763631806652023 0.03669531815206507 0  -0.07833515860350104 0.0039876586306399 0  -0.00399246714381836 0.07833054652153988 0  -0.08653156940285843 0.003740785483310782 0  -0.003747081773059857 0.08653346062423688 0  </DataArray>
</Points>
<Cells>
<DataArray  type="UInt32"  Name="connectivity"  format="ascii">61 79 84  51 59 83  52 79 84  49 63 88  48 64 89  51 59 86  50 66 85  50 65 85  50 66 81  50 65 80  62 82 83  52 60 84  51 82 83  8 63 88  25 64 89  52 60 87  18 65 73  15 66 74  33 68 75  57 65 73  58 66 74  11 61 84  21 59 83  8 9 63  24 25 64  54 68 75  23 55 62  13 54 60  10 11 61  20 21 59  45 69 71  32 33 75  9 56 63  24 55 64  48 77 91  49 78 90  10 56 61  20 53 59  22 23 62  12 13 60  15 16 66  17 18 65  19 20 53  13 14 54  9 10 56  23 24 55  36 37 50  30 31 52  42 43 51  34 35 58  38 39 57  22 62 83  12 60 84  16 66 85  17 65 85  44 45 71  49 63 78  48 64 77  53 59 76  1 26 90  3 47 91  18 19 73  14 15 74  55 69 71  55 62 71  54 60 75  0 8 88  2 25 89  39 40 67  33 34 68  47 77 91  26 78 90  56 61 72  59 76 86  39 57 67  34 58 68  55 64 69  56 63 70  45 46 69  27 28 70  19 53 73  14 54 74  6 7 48  4 5 49  57 65 80  58 66 81  30 52 79  37 50 80  36 50 81  38 57 80  35 58 81  28 29 72  42 51 86  31 32 87  53 67 73  54 68 74  46 47 77  26 27 78  43 44 82  40 41 76  53 67 76  28 70 72  61 72 79  43 51 82  40 67 76  56 70 72  29 30 79  37 38 80  35 36 81  57 67 73  58 68 74  21 22 83  11 12 84  16 17 85  41 42 86  29 72 79  63 70 78  64 69 77  32 75 87  44 71 82  31 52 87  41 76 86  27 70 78  46 69 77  62 71 82  7 48 91  5 49 90  6 48 89  4 49 88  60 75 87  0 4 88  2 6 89  3 7 91  1 5 90  </DataArray>
<DataArray  type="UInt32"  Name="offsets"  format="ascii">3 6 9 12 15 18 21 24 27 30 33 36 39 42 45 48 51 54 57 60 63 66 69 72 75 78 81 84 87 90 93 96 99 102 105 108 111 114 117 120 123 126 129 132 135 138 141 144 147 150 153 156 159 162 165 168 171 174 177 180 183 186 189 192 195 198 201 204 207 210 213 216 219 222 225 228 231 234 237 240 243 246 249 252 255 258 261 264 267 270 273 276 279 282 285 288 291 294 297 300 303 306 309 312 315 318 321 324 327 330 333 336 339 342 345 348 351 354 357 360 363 366 369 372 375 378 381 384 387 390 393 396 399 402 </DataArray>
<DataArray  type="UInt8"  Name="types"  format="ascii">5 5 5 5 5 5 5 5 5 5 5 5 5 5 5 5 5 5 5 5 5 5 5 5 5 5 5 5 5 5 5 5 5 5 5 5 5 5 5 5 5 5 5 5 5 5 5 5 5 5 5 5 5 5 5 5 5 5 5 5 5 5 5 5 5 5 5 5 5 5 5 5 5 5 5 5 5 5 5 5 5 5 5 5 5 5 5 5 5 5 5 5 5 5 5 5 5 5 5 5 5 5 5 5 5 5 5 5 5 5 5 5 5 5 5 5 5 5 5 5 5 5 5 5 5 5 5 5 5 5 5 5 5 5 </DataArray>
</Cells>
<PointData  Vectors="f_43"> 
<DataArray  type="Float64"  Name="f_43"  NumberOfComponents="3" format="ascii">-6.0692327170914100e-05 0.0000000000000000e+00 0.0000000000000000e+00  -5.5411654212576644e-05 0.0000000000000000e+00 0.0000000000000000e+00  0.0000000000000000e+00 6.0690935298079365e-05 0.0000000000000000e+00  0.0000000000000000e+00 5.5408809303052229e-05 0.0000000000000000e+00  -5.8593875315182254e-05 0.0000000000000000e+00 0.0000000000000000e+00  -5.6844083187688386e-05 0.0000000000000000e+00 0.0000000000000000e+00  0.0000000000000000e+00 5.8591181604120578e-05 0.0000000000000000e+00  0.0000000000000000e+00 5.6840574117753966e-05 0.0000000000000000e+00  -6.0496979752299539e-05 5.1422145702480110e-06 0.0000000000000000e+00  -5.9842360027956043e-05 1.0114915792267815e-05 0.0000000000000000e+00  -5.8926216269713040e-05 1.5017471664247146e-05 0.0000000000000000e+00  -5.7504470145362613e-05 1.9815775078465980e-05 0.0000000000000000e+00  -5.5744380615026577e-05 2.4550061122485518e-05 0.0000000000000000e+00  -5.3505793156333808e-05 2.8989477375571452e-05 0.0000000000000000e+00  -5.0957326777963189e-05 3.3326400503781377e-05 0.0000000000000000e+00  -4.8019391165493831e-05 3.7403937076165180e-05 0.0000000000000000e+00  -4.4867425749000612e-05 4.1252050280119617e-05 0.0000000000000000e+00  -4.1246894353357382e-05 4.4875326184895995e-05 0.0000000000000000e+00  -3.7403854845055427e-05 4.8040812700060658e-05 0.0000000000000000e+00  -3.3333688918628457e-05 5.0987272181450885e-05 0.0000000000000000e+00  -2.8999789865467667e-05 5.3520943826739443e-05 0.0000000000000000e+00  -2.4554824925629619e-05 5.5716538278738707e-05 0.0000000000000000e+00  -1.9825458497021708e-05 5.7506034089011590e-05 0.0000000000000000e+00  -1.5023461737591338e-05 5.8925929803775365e-05 0.0000000000000000e+00  -1.0105798782135458e-05 5.9823030237358481e-05 0.0000000000000000e+00  -5.1389021553519087e-06 6.0492987365196483e-05 0.0000000000000000e+00  -5.5306055255989483e-05 3.7156326074116646e-06 0.0000000000000000e+00  -5.4877098188720978e-05 7.4691708317106058e-06 0.0000000000000000e+00  -5.4288920144326983e-05 1.1235072234812197e-05 0.0000000000000000e+00  -5.3436609454023897e-05 1.4942726688387972e-05 0.0000000000000000e+00  -5.2367348970460278e-05 1.8597904634864060e-05 0.0000000000000000e+00  -5.1024230281573071e-05 2.2203382606723960e-05 0.0000000000000000e+00  -4.9408260607748454e-05 2.5604108682327912e-05 0.0000000000000000e+00  -4.7473152504928510e-05 2.8870190336882411e-05 0.0000000000000000e+00  -4.5380627471638195e-05 3.2073707096504493e-05 0.0000000000000000e+00  -4.3144451191797044e-05 3.5138458754766530e-05 0.0000000000000000e+00  -4.0678783672309377e-05 3.7976302947454676e-05 0.0000000000000000e+00  -3.7980264472942765e-05 4.0678841429039372e-05 0.0000000000000000e+00  -3.5143187724025803e-05 4.3150626217438356e-05 0.0000000000000000e+00  -3.2080765967119624e-05 4.5405888317360625e-05 0.0000000000000000e+00  -2.8876484106445672e-05 4.7490253225618040e-05 0.0000000000000000e+00  -2.5603202235848275e-05 4.9410651185075754e-05 0.0000000000000000e+00  -2.2199341667169111e-05 5.1035062405024990e-05 0.0000000000000000e+00  -1.8595276698425142e-05 5.2340101554240871e-05 0.0000000000000000e+00  -1.4958610841135704e-05 5.3449852670304354e-05 0.0000000000000000e+00  -1.1220487948733803e-05 5.4278755375048018e-05 0.0000000000000000e+00  -7.4674488878642250e-06 5.4866426304922901e-05 0.0000000000000000e+00  -3.7151581572305265e-06 5.5302945476382522e-05 0.0000000000000000e+00  -3.0436851330289143e-06 5.7508066236711373e-05 0.0000000000000000e+00  -5.7512091830856851e-05 3.0427235552567879e-06 0.0000000000000000e+00  -4.0436544024991902e-05 4.0436223915762638e-05 0.0000000000000000e+00  -2.1363794278495862e-05 5.2953617127604098e-05 0.0000000000000000e+00  -5.3163861160820400e-05 2.1023329013564066e-05 0.0000000000000000e+00  -3.0247705518187895e-05 5.0426804439215200e-05 0.0000000000000000e+00  -5.0574704215526740e-05 3.0085310070996921e-05 0.0000000000000000e+00  -1.2195193496800293e-05 5.7384728942127381e-05 0.0000000000000000e+00  -5.7375048948827737e-05 1.2049662667203448e-05 0.0000000000000000e+00  -3.4608347286162350e-05 4.5343073740547295e-05 0.0000000000000000e+00  -4.5335971452655235e-05 3.4598676029388336e-05 0.0000000000000000e+00  -2.5580717954527598e-05 5.2702727952475857e-05 0.0000000000000000e+00  -5.2896047359727369e-05 2.5335062966339429e-05 0.0000000000000000e+00  -5.6404987992616407e-05 1.6497450610368187e-05 0.0000000000000000e+00  -1.6666673769292809e-05 5.6407691757166574e-05 0.0000000000000000e+00  -5.8171606608749596e-05 6.9405675611788811e-06 0.0000000000000000e+00  -6.9656502281500921e-06 5.8170868583419084e-05 0.0000000000000000e+00  -3.8138475806030324e-05 4.4545241720964169e-05 0.0000000000000000e+00  -4.4542247202852428e-05 3.8135210288040711e-05 0.0000000000000000e+00  -3.1305583343490767e-05 4.7698414253129483e-05 0.0000000000000000e+00  -4.7888811514078598e-05 3.1118383121810213e-05 0.0000000000000000e+00  -9.6283971210670503e-06 5.5983310546428188e-05 0.0000000000000000e+00  -5.6039621775709563e-05 9.5341080821638215e-06 0.0000000000000000e+00  -1.3768304103894472e-05 5.5279913587751373e-05 0.0000000000000000e+00  -5.5234821745597532e-05 1.3473342365876270e-05 0.0000000000000000e+00  -3.4196450862049798e-05 4.7887135044294938e-05 0.0000000000000000e+00  -4.7940358687324449e-05 3.4137317082005470e-05 0.0000000000000000e+00  -5.0171107597285673e-05 2.7277038243070081e-05 0.0000000000000000e+00  -2.7671895854492731e-05 4.9839868952921257e-05 0.0000000000000000e+00  -5.4114935958403113e-06 5.6336721439203710e-05 0.0000000000000000e+00  -5.6345867090507492e-05 5.3943907903340421e-06 0.0000000000000000e+00  -5.4229507682884229e-05 1.7520844382943013e-05 0.0000000000000000e+00  -3.7311579250378629e-05 4.2857317997807672e-05 0.0000000000000000e+00  -4.2854264809800668e-05 3.7306766872977465e-05 0.0000000000000000e+00  -1.7541103339198124e-05 5.4171985702721763e-05 0.0000000000000000e+00  -2.1335022365584003e-05 5.4992732169834572e-05 0.0000000000000000e+00  -5.5024065884786241e-05 2.1298853130743359e-05 0.0000000000000000e+00  -4.1885870646301754e-05 4.1887765348090500e-05 0.0000000000000000e+00  -2.4491331470910361e-05 5.1234735306599515e-05 0.0000000000000000e+00  -5.1365636191248689e-05 2.4299069006227977e-05 0.0000000000000000e+00  -5.9086605867660610e-05 3.0207432892488790e-06 0.0000000000000000e+00  -3.0258477781744996e-06 5.9086022130358272e-05 0.0000000000000000e+00  -5.6277164817705142e-05 2.4176716166872043e-06 0.0000000000000000e+00  -2.4208053940610089e-06 5.6273441419379180e-05 0.0000000000000000e+00  </DataArray> 
</PointData> 
</Piece>
</UnstructuredGrid>
</VTKFile>