<?xml version="1.0"?>
<VTKFile type="UnstructuredGrid"  version="0.1"  >
<UnstructuredGrid>
<Piece  NumberOfPoints="1574" NumberOfCells="2917">
<Points>
<DataArray  type="Float64"  NumberOfComponents="3"  format="ascii">-0.075 0 0  -0.09 0 0  0 0.075 0  0 0.09 0  -0.07625 0 0  -0.07749999999999639 0 0  -0.07874999999999457 0 0  -0.07999999999998646 0 0  -0.08124999999998554 0 0  -0.08249999999998103 0 0  -0.08374999999998735 0 0  -0.08499999999998645 0 0  -0.08624999999999458 0 0  -0.08749999999999278 0 0  -0.08874999999999458 0 0  0 0.07625 0  0 0.07749999999999639 0  0 0.07874999999999457 0  0 0.07999999999998646 0  0 0.08124999999998554 0  0 0.08249999999998103 0  0 0.08374999999998735 0  0 0.08499999999998645 0  0 0.08624999999999458 0  0 0.08749999999999278 0  0 0.08874999999999458 0  -0.07498930219191691 0.001266711004675615 0  -0.07495721181948491 0.002533060648479082 0  -0.07490373803729006 0.003798687673529778 0  -0.07482889610005157 0.005063231028472543 0  -0.07473270735832206 0.006326329970480164 0  -0.07461519925235564 0.007587624169083942 0  -0.07447640530418301 0.008846753809565497 0  -0.07431636510818122 0.0101033596940574 0  -0.07413512431987349 0.01135708334375086 0  -0.07393273464254584 0.01260756710372397 0  -0.07370925381321003 0.01385445424041603 0  -0.07346474558511995 0.01509738904955421 0  -0.07319927971047069 0.01633601695237469 0  -0.07291293191971722 0.01756998460075255 0  -0.07260578390096112 0.01879893997349145 0  -0.07227792327564242 0.02002253248119099 0  -0.0719294435742136 0.02124041306340398 0  -0.07156044420931473 0.02245223428894222 0  -0.07117103044660958 0.02365765045746875 0  -0.07076131337690833 0.02485631769138328 0  -0.07033140988249674 0.0260478940404064 0  -0.06988144260250165 0.02723203958195692 0  -0.06941153990293369 0.02840841650468118 0  -0.06892183583432669 0.02957668922016324 0  -0.06841247009732143 0.03073652444866043 0  -0.06788358800133741 0.03188759131801397 0  -0.06733534042181449 0.03302956146058185 0  -0.06676788376101442 0.03416210909876126 0  -0.06618137990027982 0.03528491114477741 0  -0.06557599615443911 0.03639764729145258 0  -0.06495190522430147 0.03750000010311146 0  -0.06430928514651685 0.03859165510760049 0  -0.06364831924519609 0.0396723008818697 0  -0.06296919607714467 0.04074162914511529 0  -0.06227210937891525 0.04179933484519118 0  -0.06155725801170833 0.0428451162453782 0  -0.06082484590507783 0.04387867500988989 0  -0.06007508199746587 0.0448997162908381 0  -0.05930818017831283 0.04590794880994772 0  -0.05852435922424906 0.04690308494535358 0  -0.05772384274124217 0.04788484080775818 0  -0.05690685909626497 0.04885293632728584 0  -0.05607364135253878 0.04980709533256133 0  -0.05522442720625025 0.0507470456257462 0  -0.05435945891941883 0.05167251905982538 0  -0.05347898324509114 0.05258325162132198 0  -0.05258325136373313 0.05347898349836557 0  -0.05167251880243324 0.05435945916408829 0  -0.05074704537037236 0.05522442744091938 0  -0.04980709507897202 0.05607364157778805 0  -0.04885293607695169 0.05690685931116977 0  -0.0478848405581164 0.05772384294833263 0  -0.04690308469824559 0.05852435942228842 0  -0.04590794856687989 0.05930818036646134 0  -0.04489971605246691 0.0600750821756229 0  -0.04387867477558163 0.06082484607410639 0  -0.04284511601326176 0.06155725817326613 0  -0.04179933461477489 0.06227210953357917 0  -0.04074162891707449 0.06296919622468909 0  -0.03967230065634757 0.06364831938576512 0  -0.03859165488580302 0.06430928527961631 0  -0.03749999988830396 0.06495190534832063 0  -0.03639764708139012 0.06557599627103329 0  -0.03528491093819908 0.06618138001041803 0  -0.03416210889575495 0.06676788386488357 0  -0.0330295612633285 0.06733534051857189 0  -0.03188759112748725 0.06788358809083529 0  -0.03073652426127813 0.06841247018150902 0  -0.029576689038634 0.06892183591222703 0  -0.02840841632874566 0.06941153997493973 0  -0.0272320394118802 0.06988144266877869 0  -0.02604789387653609 0.07033140994318764 0  -0.02485631753370598 0.07076131343229562 0  -0.02365765030692806 0.07117103049665016 0  -0.02245223414753451 0.07156044425368169 0  -0.02124041292663706 0.0719294436146002 0  -0.02002253235242255 0.07227792331131404 0  -0.01879893985427249 0.07260578393182905 0  -0.01756998449004792 0.07291293194639395 0  -0.01633601684814813 0.07319927973373112 0  -0.01509738895341923 0.07346474560487619 0  -0.01385445415380608 0.07370925382948931 0  -0.01260756702617009 0.07393273465577091 0  -0.0113570832730429 0.07413512433070554 0  -0.01010335963281852 0.07431636511650669 0  -0.008846753757066903 0.0744764053104191 0  -0.007587624123361229 0.07461519925700517 0  -0.006326329930632813 0.07473270736169525 0  -0.005063230996983647 0.07482889610218224 0  -0.003798687650605661 0.07490373803845263 0  -0.002533060632715721 0.07495721182001759 0  -0.001266710996124919 0.07498930219206135 0  -0.08999114865831469 0.001262205671473583 0  -0.08996459637428383 0.002524163071632105 0  -0.08992034837064994 0.003785623977754078 0  -0.08985841335084267 0.005046340264894299 0  -0.08977880349727008 0.006306063954525132 0  -0.08968153446894038 0.007564547263138216 0  -0.08956662539833155 0.008821542651653689 0  -0.08943409888758014 0.01007680287425194 0  -0.08928398100413619 0.01133008102588162 0  -0.08911630127567292 0.01258113059082895 0  -0.08893109268420658 0.01382970549191308 0  -0.08872839165963102 0.01507556013868525 0  -0.08850823807267243 0.01631844947509211 0  -0.08827067522660871 0.01755812903012624 0  -0.08801574984939541 0.01879435496229243 0  -0.08774351208379098 0.02002688411115468 0  -0.0874540154778768 0.02125547404306193 0  -0.0871473169748251 0.0224798830977689 0  -0.08682347690139268 0.02369987043747977 0  -0.08648255895463595 0.02491519609912614 0  -0.08612463019307962 0.02612562102812627 0  -0.08574976101955208 0.02733090713989755 0  -0.08535802516952905 0.02853081735874457 0  -0.08494949969670741 0.0297251156646884 0  -0.08452426495643432 0.03091356714412757 0  -0.08408240459063268 0.03209593803360712 0  -0.08362400551063973 0.03327199576755942 0  -0.08314915788275254 0.03444150901730477 0  -0.08265795510880052 0.03560424774140739 0  -0.08215049380551086 0.03675998323599611 0  -0.08162687378973879 0.03790848816972327 0  -0.08108719805455228 0.03904953663824716 0  -0.08053157275331645 0.0401829041991404 0  -0.07996010717475355 0.04130836792469439 0  -0.07937291372383447 0.04242570644065607 0  -0.07877010790057179 0.04353469996832724 0  -0.07815180827492027 0.04463513037238828 0  -0.07751813646279251 0.04572678120462749 0  -0.07686921710593937 0.04680943773983996 0  -0.07620517784467774 0.04788288702303812 0  -0.07552614929138904 0.04894691791333557 0  -0.07483226501143495 0.0500013211151302 0  -0.07412366148768557 0.05104588923369828 0  -0.07340047810129512 0.05208041680422009 0  -0.07266285709908123 0.05310470033997459 0  -0.07191094356793018 0.05411853836875082 0  -0.07114488540789207 0.05512173147042734 0  -0.07036483329907273 0.05611408232158573 0  -0.06957094067513953 0.05709539573009553 0  -0.06876336369035174 0.0580654786769937 0  -0.06794226119577153 0.05902414034617998 0  -0.06710779469580659 0.05997119217645643 0  -0.06626012832887809 0.06090644788395234 0  -0.06539942882909366 0.06182972350599919 0  -0.06452586549149744 0.06274083743920841 0  -0.06363961014340973 0.06363961047016879 0  -0.06274083711380632 0.06452586580789768 0  -0.06182972318182017 0.06539942913557799 0  -0.06090644756128658 0.06626012862547313 0  -0.0599711918564473 0.06710779498178424 0  -0.05902414003093221 0.0679422614696398 0  -0.05806547836503637 0.06876336395377622 0  -0.05709539542327104 0.06957094092694389 0  -0.05611408201781561 0.07036483354132134 0  -0.05512173116972162 0.07114488564087328 0  -0.0541185380720238 0.07191094379124019 0  -0.05310470004598786 0.0726628573139376 0  -0.05208041651321024 0.07340047830777763 0  -0.05104588894368926 0.07412366168740275 0  -0.05000132082849684 0.07483226520295723 0  -0.04894691762982294 0.07552614947512765 0  -0.0478828867442808 0.07620517801983258 0  -0.04680943746080556 0.0768692172758571 0  -0.04572678093015956 0.077518136624697 0  -0.0446351301030101 0.07815180842877123 0  -0.04353469970282017 0.07877010804731237 0  -0.04242570617961124 0.07937291386336584 0  -0.04130836766964701 0.07996010730651415 0  -0.04018290395093254 0.08053157287716493 0  -0.03904953639605313 0.08108719817118679 0  -0.03790848793502063 0.08162687389873749 0  -0.03675998300372344 0.08215049390944622 0  -0.03560424751776978 0.08265795520513063 0  -0.03444150880026862 0.08314915797265186 0  -0.03327199555870065 0.08362400559373966 0  -0.03209593783365859 0.08408240466695704 0  -0.03091356694849797 0.08452426502798312 0  -0.02972511547690198 0.08494949976241672 0  -0.02853081717955674 0.08535802522942237 0  -0.02733090696988521 0.0857497610737399 0  -0.02612562086624349 0.08612463024218622 0  -0.02491519594414486 0.08648255899928531 0  -0.0236998702931757 0.08682347694078281 0  -0.02247988296120515 0.0871473170100521 0  -0.02125547391522779 0.08745401550894658 0  -0.0200268839860875 0.08774351211233676 0  -0.018794354843083 0.0880157498748507 0  -0.0175581289187106 0.08827067524877066 0  -0.0163184493730421 0.08850823809148761 0  -0.01507556004580942 0.08872839167541127 0  -0.01382970540529596 0.08893109269767648 0  -0.01258113051377353 0.08911630128655135 0  -0.01133008095796049 0.08928398101275535 0  -0.01007680281496261 0.08943409889426045 0  -0.008821542598703318 0.08956662540354672 0  -0.007564547215820788 0.08968153447293158 0  -0.006306063915026185 0.0897788035000445 0  -0.005046340233845304 0.08985841335258636 0  -0.003785623955134873 0.08992034837160222 0  -0.002524163054755375 0.08996459637475736 0  -0.001262205662938348 0.08999114865843441 0  -0.0885823983535397 0.008025749614785619 0  -0.008222680804976302 0.088486543426629 0  -0.03577529901586029 0.08157812518220259 0  -0.08142817636778657 0.03582430320387275 0  -0.02866273238205348 0.08407610625122891 0  -0.08407949928916593 0.02869409314104592 0  -0.042628606028632
[...]
<PointData  Vectors="f_101"> 
<DataArray  type="Float64"  Name="f_101"  NumberOfComponents="3" format="ascii">-6.1148810448185062e-05 0.0000000000000000e+00 0.0000000000000000e+00  -5.5832546853694296e-05 0.0000000000000000e+00 0.0000000000000000e+00  0.0000000000000000e+00 6.1159923533429935e-05 0.0000000000000000e+00  0.0000000000000000e+00 5.5843073104033820e-05 0.0000000000000000e+00  -6.0586272961161668e-05 0.0000000000000000e+00 0.0000000000000000e+00  -6.0048569878581890e-05 0.0000000000000000e+00 0.0000000000000000e+00  -5.9535872120068455e-05 0.0000000000000000e+00 0.0000000000000000e+00  -5.9042913703593819e-05 0.0000000000000000e+00 0.0000000000000000e+00  -5.8573894354170891e-05 0.0000000000000000e+00 0.0000000000000000e+00  -5.8127330347377783e-05 0.0000000000000000e+00 0.0000000000000000e+00  -5.7698883313719263e-05 0.0000000000000000e+00 0.0000000000000000e+00  -5.7291115499659767e-05 0.0000000000000000e+00 0.0000000000000000e+00  -5.6900399803494355e-05 0.0000000000000000e+00 0.0000000000000000e+00  -5.6528324090989930e-05 0.0000000000000000e+00 0.0000000000000000e+00  -5.6173091790243055e-05 0.0000000000000000e+00 0.0000000000000000e+00  0.0000000000000000e+00 6.0598917068535157e-05 0.0000000000000000e+00  0.0000000000000000e+00 6.0060204656363028e-05 0.0000000000000000e+00  0.0000000000000000e+00 5.9546564252341644e-05 0.0000000000000000e+00  0.0000000000000000e+00 5.9056925714005456e-05 0.0000000000000000e+00  0.0000000000000000e+00 5.8588391161804237e-05 0.0000000000000000e+00  0.0000000000000000e+00 5.8139419598978610e-05 0.0000000000000000e+00  0.0000000000000000e+00 5.7712693705877497e-05 0.0000000000000000e+00  0.0000000000000000e+00 5.7303746037182264e-05 0.0000000000000000e+00  0.0000000000000000e+00 5.6913172549456848e-05 0.0000000000000000e+00  0.0000000000000000e+00 5.6540412284109702e-05 0.0000000000000000e+00  0.0000000000000000e+00 5.6183686210520834e-05 0.0000000000000000e+00  -6.1139775202937512e-05 1.0336280512144308e-06 0.0000000000000000e+00  -6.1108450853523079e-05 2.0673413728249252e-06 0.0000000000000000e+00  -6.1066412995126624e-05 3.0978325773923246e-06 0.0000000000000000e+00  -6.1005414588102675e-05 4.1279191209068841e-06 0.0000000000000000e+00  -6.0926476920830497e-05 5.1569730305169583e-06 0.0000000000000000e+00  -6.0830156682082346e-05 6.1849269337343209e-06 0.0000000000000000e+00  -6.0716806731657794e-05 7.2112270006048402e-06 0.0000000000000000e+00  -6.0586329123366919e-05 8.2353974785729826e-06 0.0000000000000000e+00  -6.0438683012979819e-05 9.2571979938890821e-06 0.0000000000000000e+00  -6.0273656545812552e-05 1.0276279601424359e-05 0.0000000000000000e+00  -6.0090561453805339e-05 1.1291990723414559e-05 0.0000000000000000e+00  -5.9890102829694538e-05 1.2304656739322199e-05 0.0000000000000000e+00  -5.9672079217902346e-05 1.3315047681393659e-05 0.0000000000000000e+00  -5.9441198407175918e-05 1.4318649119477656e-05 0.0000000000000000e+00  -5.9188293298844870e-05 1.5321738722070671e-05 0.0000000000000000e+00  -5.8919651293602121e-05 1.6319809184431067e-05 0.0000000000000000e+00  -5.8637140035780485e-05 1.7313154484181891e-05 0.0000000000000000e+00  -5.8334919779503376e-05 1.8300608188218311e-05 0.0000000000000000e+00  -5.8017715151100648e-05 1.9280762265069633e-05 0.0000000000000000e+00  -5.7680725926187980e-05 2.0258647652490158e-05 0.0000000000000000e+00  -5.7330577194406130e-05 2.1231328096337612e-05 0.0000000000000000e+00  -5.6964642596407372e-05 2.2196844056174711e-05 0.0000000000000000e+00  -5.6578892692342145e-05 2.3156223114559790e-05 0.0000000000000000e+00  -5.6177916395649340e-05 2.4107986029878896e-05 0.0000000000000000e+00  -5.5765291892439580e-05 2.5051477766462404e-05 0.0000000000000000e+00  -5.5331797563498517e-05 2.5996634589426166e-05 0.0000000000000000e+00  -5.4883466327302026e-05 2.6924810900029052e-05 0.0000000000000000e+00  -5.4419729773038117e-05 2.7848005191161972e-05 0.0000000000000000e+00  -5.3941611381811419e-05 2.8763281808183125e-05 0.0000000000000000e+00  -5.3451652654220063e-05 2.9670583028238266e-05 0.0000000000000000e+00  -5.2938800398704292e-05 3.0565569669686203e-05 0.0000000000000000e+00  -5.2418050109065814e-05 3.1455406729661686e-05 0.0000000000000000e+00  -5.1876197084426899e-05 3.2343667868038886e-05 0.0000000000000000e+00  -5.1321090045897739e-05 3.3212389226052288e-05 0.0000000000000000e+00  -5.0754895945046610e-05 3.4076356790848606e-05 0.0000000000000000e+00  -5.0170821169795596e-05 3.4929173248337562e-05 0.0000000000000000e+00  -4.9574018337350535e-05 3.5768734928290459e-05 0.0000000000000000e+00  -4.8963253097585552e-05 3.6603310232792216e-05 0.0000000000000000e+00  -4.8337910318739417e-05 3.7428363010878974e-05 0.0000000000000000e+00  -4.7698432197483649e-05 3.8240363253080562e-05 0.0000000000000000e+00  -4.7048742570156407e-05 3.9039453389960040e-05 0.0000000000000000e+00  -4.6381324270498638e-05 3.9828602079872279e-05 0.0000000000000000e+00  -4.5701212855233420e-05 4.0605300076547684e-05 0.0000000000000000e+00  -4.5009706031942372e-05 4.1372973747704183e-05 0.0000000000000000e+00  -4.4305684494943511e-05 4.2131116271762428e-05 0.0000000000000000e+00  -4.3588538370080155e-05 4.2873094183410373e-05 0.0000000000000000e+00  -4.2856427413153946e-05 4.3603137163226085e-05 0.0000000000000000e+00  -4.2117129704347228e-05 4.4317477640087512e-05 0.0000000000000000e+00  -4.1364779217148243e-05 4.5026594650823176e-05 0.0000000000000000e+00  -4.0595456206047142e-05 4.5722100569533116e-05 0.0000000000000000e+00  -3.9817075223524744e-05 4.6403624275797753e-05 0.0000000000000000e+00  -3.9026552687185855e-05 4.7068541000961563e-05 0.0000000000000000e+00  -3.8228426578745357e-05 4.7722334590915001e-05 0.0000000000000000e+00  -3.7418318098865181e-05 4.8362030469566149e-05 0.0000000000000000e+00  -3.6596800048966604e-05 4.8987509191337658e-05 0.0000000000000000e+00  -3.5765072808919295e-05 4.9599733950322980e-05 0.0000000000000000e+00  -3.4923483122226020e-05 5.0197043457392355e-05 0.0000000000000000e+00  -3.4071563686823665e-05 5.0777773338815415e-05 0.0000000000000000e+00  -3.3213718505591004e-05 5.1344194932360504e-05 0.0000000000000000e+00  -3.2340686748214284e-05 5.1901161112345812e-05 0.0000000000000000e+00  -3.1455502670990854e-05 5.2444921947376469e-05 0.0000000000000000e+00  -3.0566060145721667e-05 5.2965085801826031e-05 0.0000000000000000e+00  -2.9668710368997327e-05 5.3474845785540064e-05 0.0000000000000000e+00  -2.8765875653052861e-05 5.3971956606871030e-05 0.0000000000000000e+00  -2.7849337480506486e-05 5.4449277988628373e-05 0.0000000000000000e+00  -2.6923106978379520e-05 5.4913284747307236e-05 0.0000000000000000e+00  -2.5990684082257597e-05 5.5357052484649743e-05 0.0000000000000000e+00  -2.5053743397200733e-05 5.5789671125247109e-05 0.0000000000000000e+00  -2.4110546559237225e-05 5.6206883932242557e-05 0.0000000000000000e+00  -2.3161054355424445e-05 5.6605049666489093e-05 0.0000000000000000e+00  -2.2199114789507098e-05 5.6987129431745420e-05 0.0000000000000000e+00  -2.1232687354054143e-05 5.7355190131281374e-05 0.0000000000000000e+00  -2.0260304507877778e-05 5.7705204727128937e-05 0.0000000000000000e+00  -1.9283152270857820e-05 5.8040695586948778e-05 0.0000000000000000e+00  -1.8301968400513377e-05 5.8360006206745997e-05 0.0000000000000000e+00  -1.7314828883105426e-05 5.8657055020766308e-05 0.0000000000000000e+00  -1.6326295643162711e-05 5.8943400174320921e-05 0.0000000000000000e+00  -1.5322168508793694e-05 5.9213290190105070e-05 0.0000000000000000e+00  -1.4321168171548492e-05 5.9458538049441066e-05 0.0000000000000000e+00  -1.3318350865158179e-05 5.9692898096620398e-05 0.0000000000000000e+00  -1.2308897062729996e-05 5.9908207249428268e-05 0.0000000000000000e+00  -1.1293437553911826e-05 6.0109290462575104e-05 0.0000000000000000e+00  -1.0274882525633456e-05 6.0292983648445985e-05 0.0000000000000000e+00  -9.2591566557413091e-06 6.0455220944144155e-05 0.0000000000000000e+00  -8.2385608557730550e-06 6.0604950480956200e-05 0.0000000000000000e+00  -7.2138101108616831e-06 6.0734298836223079e-05 0.0000000000000000e+00  -6.1875036134949797e-06 6.0847577560755978e-05 0.0000000000000000e+00  -5.1594661373937193e-06 6.0943181666492920e-05 0.0000000000000000e+00  -4.1300279538520952e-06 6.1020921961180667e-05 0.0000000000000000e+00  -3.0991442111503599e-06 6.1080633561497297e-05 0.0000000000000000e+00  -2.0666152597568767e-06 6.1123114212291321e-05 0.0000000000000000e+00  -1.0363874509733397e-06 6.1154301839986590e-05 0.0000000000000000e+00  -5.5827067733082007e-05 7.8315446381376262e-07 0.0000000000000000e+00  -5.5807091595900240e-05 1.5653951772176755e-06 0.0000000000000000e+00  -5.5778961424409926e-05 2.3486516183080944e-06 0.0000000000000000e+00  -5.5739143773322569e-05 3.1313503384357564e-06 0.0000000000000000e+00  -5.5689719655610943e-05 3.9125045573488706e-06 0.0000000000000000e+00  -5.5629372535003116e-05 4.6935304118267731e-06 0.0000000000000000e+00  -5.5557511534791871e-05 5.4742631731930256e-06 0.0000000000000000e+00  -5.5474478720519299e-05 6.2533156761769897e-06 0.0000000000000000e+00  -5.5380904024902736e-05 7.0309554458668520e-06 0.0000000000000000e+00  -5.5277097875219613e-05 7.8065678027195856e-06 0.0000000000000000e+00  -5.5163358747459413e-05 8.5805931991714793e-06 0.0000000000000000e+00  -5.5035061946435385e-05 9.3549802974127797e-06 0.0000000000000000e+00  -5.4900501514537323e-05 1.0128075874456475e-05 0.0000000000000000e+00  -5.4752071712511302e-05 1.0895884955338830e-05 0.0000000000000000e+00  -5.4590306249107288e-05 1.1663928363763007e-05 0.0000000000000000e+00  -5.4422737808846782e-05 1.2428210839444077e-05 0.0000000000000000e+00  -5.4243386044878758e-05 1.3187258109407544e-05 0.0000000000000000e+00  -5.4050712734968652e-05 1.3948143403665308e-05 0.0000000000000000e+00  -5.3849895591554963e-05 1.4707121271823326e-05 0.0000000000000000e+00  -5.3636796236980002e-05 1.5461738534244434e-05 0.0000000000000000e+00  -5.3414168929408684e-05 1.6211616827071921e-05 0.0000000000000000e+00  -5.3184851561962808e-05 1.6955662195268972e-05 0.0000000000000000e+00  -5.2938185705364274e-05 1.7700578638429072e-05 0.0000000000000000e+00  -5.2685232317653560e-05 1.8442872567602374e-05 0.0000000000000000e+00  -5.2419913030769974e-05 1.9180751720393668e-05 0.0000000000000000e+00  -5.2143227286022568e-05 1.9913531943863416e-05 0.0000000000000000e+00  -5.1860486577600892e-05 2.0644348261652153e-05 0.0000000000000000e+00  -5.1566055634649381e-05 2.1365155501358338e-05 0.0000000000000000e+00  -5.1260924759426039e-05 2.2087093532503490e-05 0.0000000000000000e+00  -5.0947124632634371e-05 2.2805110992740805e-05 0.0000000000000000e+00  -5.0619530399287036e-05 2.3516181321186689e-05 0.0000000000000000e+00  -5.0284934754266986e-05 2.4223864473957989e-05 0.0000000000000000e+00  -4.9941740133702639e-05 2.4926721390333125e-05 0.0000000000000000e+00  -4.9586098831543666e-05 2.5624222650695573e-05 0.0000000000000000e+00  -4.9220967630891706e-05 2.6316263442401554e-05 0.0000000000000000e+00  -4.8847853069572869e-05 2.7006002684606699e-05 0.0000000000000000e+00  -4.8466045046675835e-05 2.7685117992361751e-05 0.0000000000000000e+00  -4.8071148612728983e-05 2.8363077558930323e-05 0.0000000000000000e+00  -4.7669426894134714e-05 2.9035274423809031e-05 0.0000000000000000e+00  -4.7256637606620791e-05 2.9699272033904603e-05 0.0000000000000000e+00  -4.6836358273506216e-05 3.0359531617377322e-05 0.0000000000000000e+00  -4.6405968960519230e-05 3.1013620824160481e-05 0.0000000000000000e+00  -4.5967525112253561e-05 3.1660593420077785e-05 0.0000000000000000e+00  -4.5519780531047553e-05 3.2301072083517454e-05 0.0000000000000000e+00  -4.5061592924640952e-05 3.2937214498751240e-05 0.0000000000000000e+00  -4.4598627277813231e-05 3.3564517897959407e-05 0.0000000000000000e+00  -4.4121485680122923e-05 3.4187542398649855e-05 0.0000000000000000e+00  -4.3638354212130111e-05 3.4804428546349083e-05 0.0000000000000000e+00  -4.3145092715061161e-05 3.5410782831927233e-05 0.0000000000000000e+00  -4.2646748393473297e-05 3.6013740005779346e-05 0.0000000000000000e+00  -4.2137391822114413e-05 3.6610711911872183e-05 0.0000000000000000e+00  -4.1621365582935595e-05 3.7195639019569741e-05 0.0000000000000000e+00  -4.1095266557527074e-05 3.7774371539003964e-05 0.0000000000000000e+00  -4.0562036275112297e-05 3.8350675113938884e-05 0.0000000000000000e+00  -4.0023185202734570e-05 3.8915187896045588e-05 0.0000000000000000e+00  -3.9471545174714328e-05 3.9472936572743036e-05 0.0000000000000000e+00  -3.8913746182885559e-05 4.0022331926766933e-05 0.0000000000000000e+00  -3.8349522394141191e-05 4.0565111533877595e-05 0.0000000000000000e+00  -3.7778219057234493e-05 4.1101383732400922e-05 0.0000000000000000e+00  -3.7198779482651824e-05 4.1626273803811354e-05 0.0000000000000000e+00  -3.6610437898431813e-05 4.2143582931262620e-05 0.0000000000000000e+00  -3.6015665054732605e-05 4.2656092312888941e-05 0.0000000000000000e+00  -3.5416494462772601e-05 4.3154663914699788e-05 0.0000000000000000e+00  -3.4808136872196028e-05 4.3646631755239859e-05 0.0000000000000000e+00  -3.4192947506319593e-05 4.4134063026126237e-05 0.0000000000000000e+00  -3.3570799866564745e-05 4.4609502198007313e-05 0.0000000000000000e+00  -3.2943546720860424e-05 4.5075608398996579e-05 0.0000000000000000e+00  -3.2308066370027925e-05 4.5532829365844085e-05 0.0000000000000000e+00  -3.1667108660183262e-05 4.5983137040561994e-05 0.0000000000000000e+00  -3.1019066661032965e-05 4.6424057040660343e-05 0.0000000000000000e+00  -3.0365285656197530e-05 4.6856334723560867e-05 0.0000000000000000e+00  -2.9703799450037640e-05 4.7279241137481828e-05 0.0000000000000000e+00  -2.9037120813817077e-05 4.7694101509982780e-05 0.0000000000000000e+00  -2.8365300465905713e-05 4.8097593185415078e-05 0.0000000000000000e+00  -2.7688232545484632e-05 4.8488175574156654e-05 0.0000000000000000e+00  -2.7006318373476866e-05 4.8871193993240905e-05 0.0000000000000000e+00  -2.6319108641462939e-05 4.9245682789662267e-05 0.0000000000000000e+00  -2.5625888283567967e-05 4.9611213351206205e-05 0.0000000000000000e+00  -2.4927155418555670e-05 4.9967426904968337e-05 0.0000000000000000e+00  -2.4223707408350737e-05 5.0312146906466771e-05 0.0000000000000000e+00  -2.3515650381285026e-05 5.0647210522120269e-05 0.0000000000000000e+00  -2.2802493259769648e-05 5.0972318240073236e-05 0.0000000000000000e+00  -2.2085468019074328e-05 5.1287452755973418e-05 0.0000000000000000e+00  -2.1364466552760890e-05 5.1592310885170373e-05 0.0000000000000000e+00  -2.0639622753151314e-05 5.1886798019458536e-05 0.0000000000000000e+00  -1.9911658518920925e-05 5.2173229721546415e-05 0.0000000000000000e+00  -1.9176617882335700e-05 5.2447830443706478e-05 0.0000000000000000e+00  -1.8437695036775481e-05 5.2709157029079131e-05 0.0000000000000000e+00  -1.7696191200976155e-05 5.2965965007212911e-05 0.0000000000000000e+00  -1.6954791966795625e-05 5.3207920043008590e-05 0.0000000000000000e+00  -1.6207827093094696e-05 5.3439375391591348e-05 0.0000000000000000e+00  -1.5454010553931347e-05 5.3663565269834627e-05 0.0000000000000000e+00  -1.4698526598353004e-05 5.3875150447000610e-05 0.0000000000000000e+00  -1.3940915691971237e-05 5.4076846904738506e-05 0.0000000000000000e+00  -1.3181962753256996e-05 5.4267309177642188e-05 0.0000000000000000e+00  -1.2423708410480270e-05 5.4447052056661162e-05 0.0000000000000000e+00  -1.1656459537693549e-05 5.4613439329607979e-05 0.0000000000000000e+00  -1.0888744452663204e-05 5.4773413683612226e-05 0.0000000000000000e+00  -1.0120627904031798e-05 5.4921647128393052e-05 0.0000000000000000e+00  -9.3482742635845394e-06 5.5055442951035003e-05 0.0000000000000000e+00  -8.5740745265459364e-06 5.5183285466313962e-05 0.0000000000000000e+00  -7.8026605332805692e-06 5.5294932715319858e-05 0.0000000000000000e+00  -7.0248128579181596e-06 5.5398343146641392e-05 0.0000000000000000e+00  -6.2469996953880181e-06 5.5494487266675638e-05 0.0000000000000000e+00  -5.4715334018024091e-06 5.5575635969631086e-05 0.0000000000000000e+00  -4.6903341236981017e-06 5.5646080553807408e-05 0.0000000000000000e+00  -3.9110542446207330e-06 5.5706820152169206e-05 0.0000000000000000e+00  -3.1311355817053673e-06 5.5756591714520582e-05 0.0000000000000000e+00  -2.3489803896702226e-06 5.5794459634800830e-05 0.0000000000000000e+00  -1.5638126140450244e-06 5.5822804861436114e-05 0.0000000000000000e+00  -7.8133636032758249e-07 5.5838863114430076e-05 0.0000000000000000e+00  -5.5883969315241564e-05 5.0645492069323922e-06 0.0000000000000000e+00  -5.1921565654747407e-06 5.5909232391837317e-05 0.0000000000000000e+00  -2.2521704133471294e-05 5.1369866283608001e-05 0.0000000000000000e+00  -5.1347090185289109e-05 2.2598070302596826e-05 0.0000000000000000e+00  -1.8116223216823844e-05 5.3159144820984405e-05 0.0000000000000000e+00  -5.3124803431919364e-05 1.8136382049450104e-05 0.0000000000000000e+00  -2.6828145672364922e-05 4.9247561945656875e-05 0.0000000000000000e+00  -4.9290172540071766e-05 2.6862457644713176e-05 0.0000000000000000e+00  -1.3521012084315089e-05 5.4439807195563427e-05 0.0000000000000000e+00  -5.4450849130273706e-05 1.3632981388621280e-05 0.0000000000000000e+00  -3.0796987283825278e-05 4.6945223410802945e-05 0.0000000000000000e+00  -4.6876503579127498e-05 3.0782576204451080e-05 0.0000000000000000e+00  -8.9202278173655067e-06 5.5450287288312964e-05 0.0000000000000000e+00  -5.5419891996130488e-05 8.9452258921438387e-06 0.0000000000000000e+00  -3.4707215401497947e-05 4.4122610224453957e-05 0.0000000000000000e+00  -4.4136208462095044e-05 3.4665254806030233e-05 0.0000000000000000e+00  -3.8242085358993051e-05 4.1043829668078773e-05 0.0000000000000000e+00  -4.1063000298058734e-05 3.8291488820411093e-05 0.0000000000000000e+00  -4.2944386379469517e-05 4.2824073483286495e-05 0.0000000000000000e+00  -3.9082083779774028e-05 4.6392549141478355e-05 0.0000000000000000e+00  -4.6317566335548889e-05 3.9161672463961712e-05 0.0000000000000000e+00  -7.6282494971674876e-06 6.0165011685090989e-05 0.0000000000000000e+00  -6.0162994536300859e-05 7.6546549547601854e-06 0.0000000000000000e+00  -3.5072018526305401e-05 4.9448241418957997e-05 0.0000000000000000e+00  -4.9440737242020302e-05 3.5016647902187092e-05 0.0000000000000000e+00  -1.2745068821612555e-05 5.9348353895852037e-05 0.0000000000000000e+00  -5.9304378305487502e-05 1.2692160247745557e-05 0.0000000000000000e+00  -3.0838214318260545e-05 5.2242400508818763e-05 0.0000000000000000e+00  -5.2253504945283268e-05 3.0762557149593335e-05 0.0000000000000000e+00  -1.7761685052052589e-05 5.8017089365560223e-05 0.0000000000000000e+00  -5.8031295519579599e-05 1.7641652258833004e-05 0.0000000000000000e+00  -2.6309233511530270e-05 5.4716182457064413e-05 0.0000000000000000e+00  -5.4713495560772786e-05 2.6147959465548202e-05 0.0000000000000000e+00  -2.2556851660031186e-05 5.6394455488226586e-05 0.0000000000000000e+00  -5.6344154396877561e-05 2.2504376950141314e-05 0.0000000000000000e+00  -8.0863622838884042e-07 5.8376794200551025e-05 0.0000000000000000e+00  -5.8322952599825527e-05 7.6952765187860434e-07 0.0000000000000000e+00  -2.0354093339955264e-05 5.2284892273271216e-05 0.0000000000000000e+00  -5.0355939969380694e-05 2.4697624253589739e-05 0.0000000000000000e+00  -2.4693628815935478e-05 5.0375996233799134e-05 0.0000000000000000e+00  -2.8855557795245886e-05 4.8150927271510198e-05 0.0000000000000000e+00  -5.2241082885712227e-05 2.0486172980245318e-05 0.0000000000000000e+00  -5.3747967849244094e-05 1.5965435067833716e-05 0.0000000000000000e+00  -1.5934269086215743e-05 5.3902198469010845e-05 0.0000000000000000e+00  -4.8107938782960324e-05 2.8866604464990337e-05 0.0000000000000000e+00  -1.1330890879834015e-05 5.4996134172994851e-05 0.0000000000000000e+00  -4.2580069916725088e-05 3.6606585663774200e-05 0.0000000000000000e+00  -3.2758181163133134e-05 4.5527711956175377e-05 0.0000000000000000e+00  -5.4973014695568361e-05 1.1369879638097423e-05 0.0000000000000000e+00  -4.5541679567076572e-05 3.2806928162115563e-05 0.0000000000000000e+00  -3.6479072691585770e-05 4.2665782131086763e-05 0.0000000000000000e+00  -6.0474097239876745e-05