<?xml version="1.0"?>
<VTKFile type="UnstructuredGrid"  version="0.1"  >
<UnstructuredGrid>
<Piece  NumberOfPoints="4379" NumberOfCells="7838">
<Points>
<DataArray  type="Float64"  NumberOfComponents="3"  format="ascii">-0.08999295048650004 0.001126438073909414 0  -0.08999295048650004 -0.001126438073909392 0  -0.08993656100441275 -0.003378608396891347 0  -0.08982381737382454 -0.005628661687631967 0  -0.08965479023976822 -0.007875188065256639 0  -0.08942958551445686 -0.01011677985885068 0  -0.08914834431091938 -0.01235203248950425 0  -0.08881124285457924 -0.01457954535041981 0  -0.08841849237283184 -0.01679792268453092 0  -0.08797033896268959 -0.01900577445908206 0  -0.08746706343657791 -0.02120171723662156 0  -0.08690898114637835 -0.02338437504186189 0  -0.08629644178582956 -0.02555238022386427 0  -0.08562982917140952 -0.02770437431300736 0  -0.08490956100183659 -0.02983900887220267 0  -0.08413608859633999 -0.03195494634182365 0  -0.08330989661186357 -0.03405086087781924 0  -0.08243150273938045 -0.03612543918248625 0  -0.08150145737950834 -0.03817738132738002 0  -0.08052034329762918 -0.04020540156784833 0  -0.07948877525872898 -0.04220822914867757 0  -0.07840739964218671 -0.04418460910034646 0  -0.07727689403675383 -0.0461333030253885 0  -0.07609796681597789 -0.04805308987437049 0  -0.07487135669433635 -0.04994276671100084 0  -0.07359783226435908 -0.05180114946588799 0  -0.07227819151502902 -0.05362707367847687 0  -0.07091326133176325 -0.05541939522669884 0  -0.06950389697828745 -0.05717699104387712 0  -0.06805098156072865 -0.05889875982243912 0  -0.06655542547426196 -0.06058362270399453 0  -0.06501816583265786 -0.06223052395534687 0  -0.06344016588108782 -0.06383843163001469 0  -0.06182241439255591 -0.06540633821484808 0  -0.06016592504833496 -0.06693326126133507 0  -0.05847173580279463 -0.06841824400120325 0  -0.05674090823302073 -0.06986035594592917 0  -0.05497452687363186 -0.07125869346978182 0  -0.05317369853721157 -0.07261238037603328 0  -0.05133955162078069 -0.07392056844598256 0  -0.04947323539874482 -0.0751824379704488 0  -0.04757591930276064 -0.07639719826339973 0  -0.0456487921889711 -0.07756408815739492 0  -0.04369306159306956 -0.07868237648053233 0  -0.04170995297365934 -0.07975136251459988 0  -0.03970070894438243 -0.08077037643414467 0  -0.03766658849529966 -0.08173877972618479 0  -0.03560886620400861 -0.08265596559030093 0  -0.03352883143699462 -0.08352135931885687 0  -0.03142778754171555 -0.08433441865711051 0  -0.02930705102992551 -0.08509463414299014 0  -0.0271679507527499 -0.08580152942632291 0  -0.02501182706802916 -0.08645466156731518 0  -0.02284003100045177 -0.08705362131409813 0  -0.02065392339500381 -0.08759803335916459 0  -0.018454874064265 -0.08808755657453621 0  -0.01624426093008547 -0.08852188422551396 0  -0.01402346916018185 -0.08890074416287767 0  -0.01179389030019253 -0.08922389899341446 0  -0.009556921401736479 -0.08949114622866908 0  -0.007313964147022753 -0.08970231841182293 0  -0.005066423970557724 -0.08985728322262229 0  -0.002815709178501092 -0.08995594356029013 0  -0.0005632300662236937 -0.08999823760436923 0  0.001689601965383117 -0.08998413885345891 0  0.003941375294288809 -0.08991365614182069 0  0.006190678961844781 -0.08978683363384284 0  0.00843610355688971 -0.08960375079636695 0  0.01067624209888452 -0.08936452234889417 0  0.01290969091952509 -0.08906929819170201 0  0.01513505054227941 -0.08871826331191705 0  0.01735092655929761 -0.08831163766760222 0  0.01955593050514656 -0.08784967604993132 0  0.02174868072682106 -0.08733266792353707 0  0.02392780324948523 -0.08676093724513309 0  0.02609193263740469 -0.08613484226052275 0  0.02823971284952621 -0.08545477528012291 0  0.0303697980891718 -0.08472116243314262 0  0.03248085364731369 -0.08393446340057097 0  0.03457155673890099 -0.08309517112714161 0  0.03664059733171558 -0.08220381151245407 0  0.03868667896723711 -0.08126094308144555 0  0.04070851957300189 -0.08026715663442004 0  0.04270485226594848 -0.07922307487685337 0  0.04467442614624504 -0.07812935202920665 0  0.04661600708110176 -0.07698667341699257 0  0.04852837847807728 -0.075795755041351 0  0.05041034204739385 -0.0745573431304037 0  0.05226071855278447 -0.07327221367166853 0  0.05407834855040127 -0.0719411719258264 0  0.0558620931153213 -0.07056505192214607 0  0.05761083455519585 -0.06914471593588227 0  0.05932347711059539 -0.06768105394797472 0  0.06099894764161073 -0.06617498308738758 0  0.06263619630028192 -0.06462744705643686 0  0.06423419718843104 -0.06303941553946829 0  0.06579194900048951 -0.06141188359525366 0  0.06730847565091488 -0.05974587103348814 0  0.06878282688580468 -0.058042421775779 0  0.07021407887832463 -0.05630260320152529 0  0.07160133480757767 -0.05452750547909894 0  0.07294372542055058 -0.05271824088274685 0  0.07424040957678717 -0.05087594309564087 0  0.07549057477544598 -0.04900176649951305 0  0.07669343766441218 -0.04709688545132174 0  0.0778482445311455 -0.0451624935474003 0  0.07895427177495516 -0.04319980287555164 0  0.08001082636040763 -0.04121004325555482 0  0.08101724625158188 -0.03919446146856137 0  0.08197290082690006 -0.03715432047586398 0  0.08287719127427451 -0.03509089862752616 0  0.08372955096632267 -0.03300548886136929 0  0.08452944581541517 -0.03089939789281968 0  0.08527637460833447 -0.02877394539612195 0  0.08596986932033468 -0.02663046317743231 0  0.08660949540840511 -0.02447029434031095 0  0.08719485208355468 -0.02229479244413409 0  0.08772557256194562 -0.02010532065595608 0  0.08820132429471993 -0.01790325089634973 0  0.0886218091763742 -0.01568996297976249 0  0.08898676373155201 -0.01346684374992665 0  0.08929595928013742 -0.01123528621086442 0  0.08954920208054562 -0.008996688654032841 0  0.08974633345112122 -0.006752453782156485 0  0.08988722986956797 -0.004503987830295212 0  0.08997180305034772 -0.00225269968469863 0  0.09 0 0  0.08997180305034772 0.002252699684698586 0  0.08988722986956797 0.004503987830295147 0  0.08974633345112122 0.006752453782156477 0  0.08954920208054562 0.008996688654032813 0  0.08929595928013742 0.01123528621086437 0  0.08898676373155201 0.01346684374992667 0  0.0886218091763742 0.01568996297976247 0  0.08820132429471994 0.0179032508963497 0  0.0877255725619456 0.0201053206559561 0  0.08719485208355468 0.02229479244413409 0  0.08660949540840514 0.02447029434031085 0  0.08596986932033468 0.02663046317743227 0  0.08527637460833448 0.02877394539612188 0  0.08452944581541517 0.03089939789281968 0  0.0837295509663227 0.03300548886136926 0  0.08287719127427452 0.03509089862752611 0  0.08197290082690006 0.03715432047586399 0  0.08101724625158188 0.03919446146856136 0  0.08001082636040764 0.04121004325555479 0  0.07895427177495513 0.04319980287555167 0  0.0778482445311455 0.04516249354740031 0  0.07669343766441224 0.04709688545132165 0  0.075490574775446 0.04900176649951301 0  0.07424040957678719 0.05087594309564082 0  0.0729437254205506 0.05271824088274685 0  0.07160133480757769 0.05452750547909893 0  0.07021407887832468 0.05630260320152525 0  0.06878282688580468 0.058042421775779 0  0.0673084756509149 0.05974587103348813 0  0.06579194900048954 0.06141188359525363 0  0.06423419718843103 0.06303941553946832 0  0.0626361963002819 0.06462744705643687 0  0.0609989476416108 0.06617498308738751 0  0.05932347711059541 0.0676810539479747 0  0.0576108345551959 0.06914471593588223 0  0.05586209311532131 0.07056505192214607 0  0.05407834855040128 0.07194117192582639 0  0.05226071855278451 0.0732722136716685 0  0.05041034204739385 0.0745573431304037 0  0.04852837847807729 0.075795755041351 0  0.04661600708110179 0.07698667341699256 0  0.04467442614624501 0.07812935202920666 0  0.04270485226594849 0.07922307487685336 0  0.04070851957300191 0.08026715663442002 0  0.03868667896723715 0.08126094308144553 0  0.03664059733171564 0.08220381151245404 0  0.03457155673890099 0.08309517112714161 0  0.03248085364731371 0.08393446340057097 0  0.03036979808917184 0.08472116243314261 0  0.02823971284952619 0.08545477528012291 0  0.02609193263740469 0.08613484226052275 0  0.02392780324948525 0.08676093724513309 0  0.02174868072682102 0.08733266792353708 0  0.01955593050514664 0.08784967604993131 0  0.01735092655929761 0.08831163766760222 0  0.01513505054227945 0.08871826331191704 0  0.01290969091952515 0.08906929819170201 0  0.01067624209888453 0.08936452234889417 0  0.008436103556889733 0.08960375079636695 0  0.006190678961844843 0.08978683363384284 0  0.003941375294288791 0.08991365614182069 0  0.001689601965383119 0.08998413885345891 0  -0.0005632300662236717 0.08999823760436923 0  -0.002815709178501129 0.08995594356029013 0  -0.005066423970557642 0.08985728322262229 0  -0.00731396414702275 0.08970231841182293 0  -0.009556921401736439 0.08949114622866908 0  -0.01179389030019249 0.08922389899341446 0  -0.01402346916018185 0.08890074416287767 0  -0.01624426093008545 0.08852188422551396 0  -0.01845487406426496 0.08808755657453622 0  -0.02065392339500382 0.08759803335916459 0  -0.02284003100045177 0.08705362131409813 0  -0.02501182706802913 0.08645466156731518 0  -0.02716795075274986 0.08580152942632292 0  -0.02930705102992543 0.08509463414299016 0  -0.03142778754171554 0.08433441865711051 0  -0.03352883143699458 0.0835213593188569 0  -0.03560886620400857 0.08265596559030096 0  -0.03766658849529967 0.08173877972618479 0  -0.03970070894438242 0.08077037643414468 0  -0.04170995297365928 0.07975136251459991 0  -0.04369306159306957 0.07868237648053233 0  -0.04564879218897111 0.07756408815739492 0  -0.04757591930276062 0.07639719826339975 0  -0.04947323539874477 0.07518243797044884 0  -0.05133955162078064 0.0739205684459826 0  -0.05317369853721156 0.07261238037603329 0  -0.05497452687363184 0.07125869346978185 0  -0.05674090823302068 0.0698603559459292 0  -0.05847173580279464 0.06841824400120324 0  -0.06016592504833494 0.0669332612613351 0  -0.06182241439255589 0.06540633821484809 0  -0.06344016588108778 0.06383843163001474 0  -0.06501816583265785 0.06223052395534689 0  -0.06655542547426195 0.06058362270399455 0  -0.068050981
[...]
<PointData  Vectors="f_20"> 
<DataArray  type="Float64"  Name="f_20"  NumberOfComponents="3" format="ascii">-7.4622020590475862e-05 -3.7124915788071814e-04 0.0000000000000000e+00  -7.8662209377803534e-05 -3.7452735775497131e-04 0.0000000000000000e+00  -8.2649622830465033e-05 -3.7791649572796888e-04 0.0000000000000000e+00  -8.6534756212168997e-05 -3.8139628054888815e-04 0.0000000000000000e+00  -9.0330606893296669e-05 -3.8498664463667263e-04 0.0000000000000000e+00  -9.4023978106392528e-05 -3.8865459333653756e-04 0.0000000000000000e+00  -9.7618371848123893e-05 -3.9241269844810152e-04 0.0000000000000000e+00  -1.0113583843197931e-04 -3.9627486797134178e-04 0.0000000000000000e+00  -1.0456236255737081e-04 -4.0021508199052585e-04 0.0000000000000000e+00  -1.0787231105134348e-04 -4.0423534618282185e-04 0.0000000000000000e+00  -1.1108680064733753e-04 -4.0835158536956130e-04 0.0000000000000000e+00  -1.1420053526568038e-04 -4.1253718267956162e-04 0.0000000000000000e+00  -1.1719824993937218e-04 -4.1678898169223355e-04 0.0000000000000000e+00  -1.2009145533469885e-04 -4.2112794835739157e-04 0.0000000000000000e+00  -1.2288756080467035e-04 -4.2553691878814383e-04 0.0000000000000000e+00  -1.2555881759131993e-04 -4.3000848962761770e-04 0.0000000000000000e+00  -1.2812472071268216e-04 -4.3454400025034172e-04 0.0000000000000000e+00  -1.3058514064358614e-04 -4.3915481917123825e-04 0.0000000000000000e+00  -1.3289403293631786e-04 -4.4380847260312576e-04 0.0000000000000000e+00  -1.3510756263861775e-04 -4.4852917280605400e-04 0.0000000000000000e+00  -1.3722598139447026e-04 -4.5332106016858509e-04 0.0000000000000000e+00  -1.3920506672164919e-04 -4.5814266581417677e-04 0.0000000000000000e+00  -1.4106182558586069e-04 -4.6302192515906490e-04 0.0000000000000000e+00  -1.4279553235301879e-04 -4.6793725274095358e-04 0.0000000000000000e+00  -1.4440286269659311e-04 -4.7288972081713617e-04 0.0000000000000000e+00  -1.4588949379647480e-04 -4.7789832754138950e-04 0.0000000000000000e+00  -1.4724970605113922e-04 -4.8293395251506612e-04 0.0000000000000000e+00  -1.4847942294280838e-04 -4.8799676994179135e-04 0.0000000000000000e+00  -1.4957973649148780e-04 -4.9308902674297247e-04 0.0000000000000000e+00  -1.5055578318249891e-04 -4.9820567322355909e-04 0.0000000000000000e+00  -1.5142103024501409e-04 -5.0336851371926550e-04 0.0000000000000000e+00  -1.5212345672811891e-04 -5.0852969185675697e-04 0.0000000000000000e+00  -1.5272177875517306e-04 -5.1371617364564387e-04 0.0000000000000000e+00  -1.5318189808233700e-04 -5.1890718724936931e-04 0.0000000000000000e+00  -1.5350503392537110e-04 -5.2410384376960512e-04 0.0000000000000000e+00  -1.5371002586087168e-04 -5.2932076420836847e-04 0.0000000000000000e+00  -1.5378525510347427e-04 -5.3454320241552126e-04 0.0000000000000000e+00  -1.5370821562919862e-04 -5.3975202859823696e-04 0.0000000000000000e+00  -1.5351459753696278e-04 -5.4496512460727969e-04 0.0000000000000000e+00  -1.5320059804036363e-04 -5.5016023437754055e-04 0.0000000000000000e+00  -1.5274055480305043e-04 -5.5536110761499979e-04 0.0000000000000000e+00  -1.5216974651938986e-04 -5.6054024798204483e-04 0.0000000000000000e+00  -1.5146138263693056e-04 -5.6571742691224013e-04 0.0000000000000000e+00  -1.5061005910844830e-04 -5.7085545891934892e-04 0.0000000000000000e+00  -1.4964976276612578e-04 -5.7599033018459556e-04 0.0000000000000000e+00  -1.4854707648914259e-04 -5.8108209217522841e-04 0.0000000000000000e+00  -1.4730770048685125e-04 -5.8613659391580858e-04 0.0000000000000000e+00  -1.4596491408580220e-04 -5.9117303363169537e-04 0.0000000000000000e+00  -1.4449988824096773e-04 -5.9618530350346634e-04 0.0000000000000000e+00  -1.4288929646988046e-04 -6.0114653513505768e-04 0.0000000000000000e+00  -1.4116778993196561e-04 -6.0607571525623204e-04 0.0000000000000000e+00  -1.3932235492645486e-04 -6.1095000354940000e-04 0.0000000000000000e+00  -1.3734602132784614e-04 -6.1577920323458205e-04 0.0000000000000000e+00  -1.3525779533053836e-04 -6.2055152496588771e-04 0.0000000000000000e+00  -1.3305302999620515e-04 -6.2528435579470656e-04 0.0000000000000000e+00  -1.3073244515494808e-04 -6.2995263892058270e-04 0.0000000000000000e+00  -1.2829045106868529e-04 -6.3456606645981165e-04 0.0000000000000000e+00  -1.2573304194837980e-04 -6.3910257277476035e-04 0.0000000000000000e+00  -1.2305881094889237e-04 -6.4358763993516610e-04 0.0000000000000000e+00  -1.2028014787785805e-04 -6.4799665498843498e-04 0.0000000000000000e+00  -1.1739021740509599e-04 -6.5234182364247884e-04 0.0000000000000000e+00  -1.1438720719616996e-04 -6.5660014275026129e-04 0.0000000000000000e+00  -1.1128549266483462e-04 -6.6079394894513060e-04 0.0000000000000000e+00  -1.0807059581370991e-04 -6.6490074245327188e-04 0.0000000000000000e+00  -1.0477487222158232e-04 -6.6893171367140777e-04 0.0000000000000000e+00  -1.0135792763156902e-04 -6.7289278852325637e-04 0.0000000000000000e+00  -9.7847335948566912e-05 -6.7675098420120333e-04 0.0000000000000000e+00  -9.4245566532947145e-05 -6.8052414019694862e-04 0.0000000000000000e+00  -9.0545976804527653e-05 -6.8420005041481462e-04 0.0000000000000000e+00  -8.6762120516768217e-05 -6.8777983832114006e-04 0.0000000000000000e+00  -8.2882489330717124e-05 -6.9127242344984771e-04 0.0000000000000000e+00  -7.8921543469660902e-05 -6.9465983755536342e-04 0.0000000000000000e+00  -7.4878547507519977e-05 -6.9796013689844925e-04 0.0000000000000000e+00  -7.0745333467198815e-05 -7.0113239803513603e-04 0.0000000000000000e+00  -6.6535633642173290e-05 -7.0421794081360165e-04 0.0000000000000000e+00  -6.2270212959509265e-05 -7.0718736972961635e-04 0.0000000000000000e+00  -5.7908561300616624e-05 -7.1007101300306602e-04 0.0000000000000000e+00  -5.3485094975638248e-05 -7.1282607001390890e-04 0.0000000000000000e+00  -4.8995967984863876e-05 -7.1548599362730812e-04 0.0000000000000000e+00  -4.4435778358716541e-05 -7.1800673602964910e-04 0.0000000000000000e+00  -3.9809740431740224e-05 -7.2043209424298951e-04 0.0000000000000000e+00  -3.5142213466615102e-05 -7.2272108427171619e-04 0.0000000000000000e+00  -3.0411096694993637e-05 -7.2490916834937668e-04 0.0000000000000000e+00  -2.5622662735767716e-05 -7.2698173573046551e-04 0.0000000000000000e+00  -2.0779650553534578e-05 -7.2892994237768610e-04 0.0000000000000000e+00  -1.5893353995949871e-05 -7.3074801754564780e-04 0.0000000000000000e+00  -1.0972792970742881e-05 -7.3244900115525572e-04 0.0000000000000000e+00  -5.9913642803242484e-06 -7.3402612579491760e-04 0.0000000000000000e+00  -9.8518192224845824e-07 -7.3548045813493824e-04 0.0000000000000000e+00  4.0593629803900244e-06 -7.3681536535360245e-04 0.0000000000000000e+00  9.1280423206309657e-06 -7.3801240943420748e-04 0.0000000000000000e+00  1.4230018205210610e-05 -7.3907536606745527e-04 0.0000000000000000e+00  1.9350078940469036e-05 -7.4002320676778489e-04 0.0000000000000000e+00  2.4514801010158013e-05 -7.4084108757879123e-04 0.0000000000000000e+00  2.9675098490590330e-05 -7.4152838539970063e-04 0.0000000000000000e+00  3.4867185412782407e-05 -7.4207941499946761e-04 0.0000000000000000e+00  4.0057719245758552e-05 -7.4251032287682591e-04 0.0000000000000000e+00  4.5267386202607789e-05 -7.4280186483917810e-04 0.0000000000000000e+00  5.0481502631000169e-05 -7.4296729722069009e-04 0.0000000000000000e+00  5.5688630521098108e-05 -7.4301308414895576e-04 0.0000000000000000e+00  6.0913448139287633e-05 -7.4291662549244119e-04 0.0000000000000000e+00  6.6115223969982642e-05 -7.4269059363622520e-04 0.0000000000000000e+00  7.1320416128426559e-05 -7.4234726658856782e-04 0.0000000000000000e+00  7.6504462544882887e-05 -7.4184313313556155e-04 0.0000000000000000e+00  8.1690014457225590e-05 -7.4123751630147852e-04 0.0000000000000000e+00  8.6848499302708275e-05 -7.4049875219449834e-04 0.0000000000000000e+00  9.1990588373687938e-05 -7.3961852503424410e-04 0.0000000000000000e+00  9.7101099084614609e-05 -7.3861660130181681e-04 0.0000000000000000e+00  1.0220397850565516e-04 -7.3749485055205587e-04 0.0000000000000000e+00  1.0726191632278694e-04 -7.3623987045244100e-04 0.0000000000000000e+00  1.1229324029498552e-04 -7.3485161922594332e-04 0.0000000000000000e+00  1.1728130866354938e-04 -7.3334297122867192e-04 0.0000000000000000e+00  1.2222887546527343e-04 -7.3170227881983211e-04 0.0000000000000000e+00  1.2713792221607411e-04 -7.2995311957881710e-04 0.0000000000000000e+00  1.3201421778773141e-04 -7.2808554546994174e-04 0.0000000000000000e+00  1.3681774745229170e-04 -7.2607072896902424e-04 0.0000000000000000e+00  1.4158215130374006e-04 -7.2394727065217890e-04 0.0000000000000000e+00  1.4629257667017999e-04 -7.2172301630181880e-04 0.0000000000000000e+00  1.5094633834381545e-04 -7.1936380890452701e-04 0.0000000000000000e+00  1.5553309313768915e-04 -7.1689631743184282e-04 0.0000000000000000e+00  1.6007636588334897e-04 -7.1430823349229752e-04 0.0000000000000000e+00  1.6453654749597923e-04 -7.1161494173426821e-04 0.0000000000000000e+00  1.6892031446398562e-04 -7.0880069123128097e-04 0.0000000000000000e+00  1.7326209929093879e-04 -7.0588143953523438e-04 0.0000000000000000e+00  1.7750193515282640e-04 -7.0285492030819753e-04 0.0000000000000000e+00  1.8167423189606726e-04 -6.9973061870729489e-04 0.0000000000000000e+00  1.8576634638797082e-04 -6.9649846362284762e-04 0.0000000000000000e+00  1.8978140759379946e-04 -6.9316520216026285e-04 0.0000000000000000e+00  1.9370569337230376e-04 -6.8973138816254449e-04 0.0000000000000000e+00  1.9754624216309551e-04 -6.8619206657472898e-04 0.0000000000000000e+00  2.0129065042803225e-04 -6.8256848504309677e-04 0.0000000000000000e+00  2.0493590854259793e-04 -6.7885254689154461e-04 0.0000000000000000e+00  2.0850468145507930e-04 -6.7505087910218705e-04 0.0000000000000000e+00  2.1197080668319997e-04 -6.7113738555944866e-04 0.0000000000000000e+00  2.1534174059666044e-04 -6.6716727441969452e-04 0.0000000000000000e+00  2.1861280817068239e-04 -6.6308509772130631e-04 0.0000000000000000e+00  2.2176719060413891e-04 -6.5894957879140774e-04 0.0000000000000000e+00  2.2481812732347522e-04 -6.5473122178502110e-04 0.0000000000000000e+00  2.2778041381828155e-04 -6.5041981814961398e-04 0.0000000000000000e+00  2.3063739104893245e-04 -6.4604828794289184e-04 0.0000000000000000e+00  2.3335672195200986e-04 -6.4160427312409446e-04 0.0000000000000000e+00  2.3597706187134391e-04 -6.3709080046554399e-04 0.0000000000000000e+00  2.3849184049745876e-04 -6.3252007780745874e-04 0.0000000000000000e+00  2.4088374124266293e-04 -6.2789570850585962e-04 0.0000000000000000e+00  2.4314484959767402e-04 -6.2319747037489488e-04 0.0000000000000000e+00  2.4531655114980210e-04 -6.1844513536601009e-04 0.0000000000000000e+00  2.4735916134762547e-04 -6.1365133974030565e-04 0.0000000000000000e+00  2.4927127102040162e-04 -6.0878361046947391e-04 0.0000000000000000e+00  2.5105797151521491e-04 -6.0390240582499451e-04 0.0000000000000000e+00  2.5273799616909052e-04 -5.9895976876912901e-04 0.0000000000000000e+00  2.5428108377543827e-04 -5.9397760881106404e-04 0.0000000000000000e+00  2.5571182793128591e-04 -5.8895902537560050e-04 0.0000000000000000e+00  2.5700003508490423e-04 -5.8391624046973893e-04 0.0000000000000000e+00  2.5817964077512744e-04 -5.7882617475148222e-04 0.0000000000000000e+00  2.5922322379341993e-04 -5.7371650260809495e-04 0.0000000000000000e+00  2.6013347275457004e-04 -5.6856361397275253e-04 0.0000000000000000e+00  2.6090958181011688e-04 -5.6342510532854568e-04 0.0000000000000000e+00  2.6157388136665975e-04 -5.5825023715780017e-04 0.0000000000000000e+00  2.6211129626991408e-04 -5.5305272249432614e-04 0.0000000000000000e+00  2.6250028779867881e-04 -5.4784259032562561e-04 0.0000000000000000e+00  2.6276199679010491e-04 -5.4264808561080085e-04 0.0000000000000000e+00  2.6291330400516190e-04 -5.3743012746763083e-04 0.0000000000000000e+00  2.6291111420616428e-04 -5.3221920194878073e-04 0.0000000000000000e+00  2.6277718827284741e-04 -5.2698877437578370e-04 0.0000000000000000e+00  2.6253391854931800e-04 -5.2179059992324721e-04 0.0000000000000000e+00  2.6214537381352281e-04 -5.1657435078004803e-04 0.0000000000000000e+00  2.6163615131245588e-04 -5.1138431732231700e-04 0.0000000000000000e+00  2.6097612865467947e-04 -5.0621722454161154e-04 0.0000000000000000e+00  2.6019719171609340e-04 -5.0106382904934366e-04 0.0000000000000000e+00  2.5929166004611822e-04 -4.9590735363093375e-04 0.0000000000000000e+00  2.5826511902359001e-04 -4.9080961021777674e-04 0.0000000000000000e+00  2.5709664638774840e-04 -4.8571583798125866e-04 0.0000000000000000e+00  2.5581458330247911e-04 -4.8066597452462828e-04 0.0000000000000000e+00  2.5439141715736364e-04 -4.7565395479419741e-04 0.0000000000000000e+00  2.5284262210276061e-04 -4.7066309440846267e-04 0.0000000000000000e+00  2.5119155196177804e-04 -4.6572047519180060e-04 0.0000000000000000e+00  2.4941197891231536e-04 -4.6083010546205252e-04 0.0000000000000000e+00  2.4749427777991464e-04 -4.5596736483072828e-04 0.0000000000000000e+00  2.4546968927472709e-04 -4.5116413054392473e-04 0.0000000000000000e+00  2.4331415059208878e-04 -4.4642568841068861e-04 0.0000000000000000e+00  2.4104294058570688e-04 -4.4173187478640781e-04 0.0000000000000000e+00  2.3865793015919075e-04 -4.3707934351145197e-04 0.0000000000000000e+00  2.3616571676123683e-04 -4.3250935379124145e-04 0.0000000000000000e+00  2.3354538418432619e-04 -4.2799416123718041e-04 0.0000000000000000e+00  2.3082550865844483e-04 -4.2355361537727156e-04 0.0000000000000000e+00  2.2798632056386030e-04 -4.1918390450372474e-04 0.0000000000000000e+00  2.2503716327227133e-04 -4.1488299027729765e-04 0.0000000000000000e+00  2.2197576582176322e-04 -4.1064131583267246e-04 0.0000000000000000e+00  2.1883227851603971e-04 -4.0650383543795255e-04 0.0000000000000000e+00  2.1556363504082241e-04 -4.0243357115903196e-04 0.0000000000000000e+00  2.1220607058927720e-04 -3.9844607508550232e-04 0.0000000000000000e+00  2.0875028454089660e-04 -3.9454999684648557e-04 0.0000000000000000e+00  2.0518889873478424e-04 -3.9074357890352390e-04 0.0000000000000000e+00  2.0154308778735119e-04 -3.8700971164834763e-04 0.0000000000000000e+00  1.9780387696547152e-04 -3.8338325565124795e-04 0.0000000000000000e+00  1.9396374915581173e-04 -3.7985535284179654e-04 0.0000000000000000e+00  1.9006283357677410e-04 -3.7642000423051831e-04 0.0000000000000000e+00  1.8604213027265614e-04 -3.7307922207439258e-04 0.0000000000000000e+00  1.8196085678423124e-04 -3.6983423262511279e-04 0.0000000000000000e+00  1.7780129390151063e-04 -3.6669987566721420e-04 0.0000000000000000e+00  1.7355968662369101e-04 -3.6366722290608235e-04 0.0000000000000000e+00  1.6923213767084283e-04 -3.6074700635168488e-04 0.0000000000000000e+00  1.6485773572767317e-04 -3.5794705655680807e-04 0.0000000000000000e+00  1.6038914876987344e-04 -3.5523143470132714e-04 0.0000000000000000e+00  1.5586966563861329e-04 -3.5263958335648196e-04 0.0000000000000000e+00  1.5128084557583185e-04 -3.5017205990077666e-04 0.0000000000000000e+00  1.4664029628347201e-04 -3.4780791906497029e-04 0.0000000000000000e+00  1.4192876486680261e-04 -3.4555784170397120e-04 0.0000000000000000e+00  1.3715976228408463e-04 -3.4343086244922611e-04 0.0000000000000000e+00  1.3234785038320648e-04 -3.4142300699405793e-04 0.0000000000000000e+00  1.2748794612898429e-04 -3.3954329616024546e-04 0.0000000000000000e+00  1.2258878335854193e-04 -3.3777895549797567e-04 0.0000000000000000e+00  1.1763138602253056e-04 -3.3613030117865458e-04 0.0000000000000000e+00  1.1263696563534479e-04 -3.3463268905798191e-04 0.0000000000000000e+00  1.0762360091737464e-04 -3.3322782891410626e-04 0.0000000000000000e+00  1.0257485886329130e-04 -3.3197120548515078e-04 0.0000000000000000e+00  9.7477562744392645e-05 -3.3083644368443044e-04 0.0000000000000000e+00  9.2349862307025799e-05 -3.2982017607126524e-04 0.0000000000000000e+00  8.7208633843494858e-05 -3.2893461233130487e-04 0.0000000000000000e+00  8.2056352203605651e-05 -3.2819117016143250e-04 0.0000000000000000e+00  7.6880908155654718e-05 -3.2756912345951978e-04 0.0000000000000000e+00  7.1679616766812226e-05 -3.2707218691571254e-04 0.0000000000000000e+00  6.6481727352150734e-05 -3.2671140364166256e-04 0.0000000000000000e+00  6.1274927429758082e-05 -3.2648332405670532e-04 0.0000000000000000e+00  5.6072157370874207e-05 -3.2638258404090137e-04 0.0000000000000000e+00  5.0847628574750067e-05 -3.2639875798858546e-04 0.0000000000000000e+00  4.5626038367449517e-05 -3.2655767919979780e-04 0.0000000000000000e+00  4.0420967781339147e-05 -3.2684458078088889e-04 0.0000000000000000e+00  3.5219349186007884e-05 -3.2726918965178358e-04 0.0000000000000000e+00  3.0033747587857513e-05 -3.2781329788006825e-04 0.0000000000000000e+00  2.4863814243657998e-05 -3.2848693850334590e-04 0.0000000000000000e+00  1.9701185743662228e-05 -3.2929950956837905e-04 0.0000000000000000e+00  1.4570224391624840e-05 -3.3023867213508262e-04 0.0000000000000000e+00  9.4735188933151317e-06 -3.3130413963800823e-04 0.0000000000000000e+00  4.3908366667752632e-06 -3.3250055603711100e-04 0.0000000000000000e+00  -6.5266083732047782e-07 -3.3381932860000973e-04 0.0000000000000000e+00  -5.6652175304678352e-06 -3.3525839166995873e-04 0.0000000000000000e+00  -1.0639103690381022e-05 -3.3682469909983417e-04 0.0000000000000000e+00  -1.5568358114712612e-05 -3.3851643631670360e-04 0.0000000000000000e+00  -2.0451959609459621e-05 -3.4034261814461702e-04 0.0000000000000000e+00  -2.5307678667900354e-05 -3.4227788006334001e-04 0.0000000000000000e+00  -3.0108157071115280e-05 -3.4433032166595440e-04 0.0000000000000000e+00  -3.4838944160272488e-05 -3.4651033470568061e-04 0.0000000000000000e+00  -3.9529661085646099e-05 -3.4880872960680985e-04 0.0000000000000000e+00  -4.4154738278941309e-05 -3.5122177860730198e-04 0.0000000000000000e+00  -4.8711012596098686e-05 -3.5374942486857678e-04 0.0000000000000000e+00  -5.3202536655630948e-05 -3.5639546121196469e-04 0.0000000000000000e+00  -5.7636423126246966e-05 -3.5915299080241381e-04 0.0000000000000000e+00  -6.1999450830296557e-05 -3.6201155468766844e-04 0.0000000000000000e+00  -6.6276669018838986e-05 -3.6498255755682143e-04 0.0000000000000000e+00  -7.0505159640300616e-05 -3.6806347909275919e-04 0.0000000000000000e+00  2.0004900378353742e-04 -6.6521328461148553e-04 0.0000000000000000e+00  1.9606551893863302e-04 -6.6952805035131000e-04 0.0000000000000000e+00  1.9192452638601334e-04 -6.7371391625129428e-04 0.0000000000000000e+00  1.8768043426813745e-04 -6.7777369763189778e-04 0.0000000000000000e+00  1.8331074677389357e-04 -6.8171527457706069e-04 0.0000000000000000e+00  1.7884120782668886e-04 -6.8552462803844326e-04 0.0000000000000000e+00  1.7426849214713359e-04 -6.8921233053220482e-04 0.0000000000000000e+00  1.6954725278927335e-04 -6.9272017739811580e-04 0.0000000000000000e+00  1.6473919061430132e-04 -6.9608972266078462e-04 0.0000000000000000e+00  1.5984838815110038e-04 -6.9934441972119570e-04 0.0000000000000000e+00  1.5485042384403278e-04 -7.0244717135872238e-04 0.0000000000000000e+00  1.4978111133822137e-04 -7.0538840513545301e-04 0.0000000000000000e+00  1.4460144651713724e-04 -7.0816388090558008e-04 0.0000000000000000e+00  1.3932328625082020e-04 -7.1079530048443222e-04 0.0000000000000000e+00  1.3402049616078284e-04 -7.1327876834657172e-04 0.0000000000000000e+00  1.2861105945799161e-04 -7.1556609539937053e-04 0.0000000000000000e+00  1.2314872815809272e-04 -7.1771765154455115e-04 0.0000000000000000e+00  1.1760880707934275e-04 -7.1970024245292252e-04 0.0000000000000000e+00  1.1199865524503531e-04 -7.2150775394266191e-04 0.0000000000000000e+00  1.0636638914837074e-04 -7.2314955156234568e-04 0.0000000000000000e+00  1.0067172317051876e-04 -7.2462848593077072e-04 0.0000000000000000e+00  9.4964648317421159e-05 -7.2593238316537691e-04 0.0000000000000000e+00  8.9195439658670895e-05 -7.2706563888789890e-04 0.0000000000000000e+00  8.3398163903152162e-05 -7.2803198990689221e-04 0.0000000000000000e+00  7.7551089575458233e-05 -7.2878188462501242e-04 0.0000000000000000e+00  7.1738908460348082e-05 -7.2940742769635756e-04 0.0000000000000000e+00  6.5871118532675069e-05 -7.2983535467000481e-04 0.0000000000000000e+00  5.9987389075126162e-05 -7.3007967575727426e-04 0.