<?xml version="1.0"?>
<VTKFile type="UnstructuredGrid"  version="0.1"  >
<UnstructuredGrid>
<Piece  NumberOfPoints="504" NumberOfCells="802">
<Points>
<DataArray  type="Float64"  NumberOfComponents="3"  format="ascii">0.09 0 0  0 0.075 0  -0.09 0 0  0 -0.075 0  0.08985841335093636 0.005046340263225921 0  0.08943409888784344 0.010076802871915 0  0.08872839166147277 0.01507556012784546 0  0.08774351208727944 0.02002688409587077 0  0.08648255895998226 0.02491519608056871 0  0.08494949970443 0.02972511564261848 0  0.08314915789326785 0.03444150899191855 0  0.08108719806770617 0.03904953661093283 0  0.07877010791694328 0.04353469993870528 0  0.07620517786097043 0.04788288699710844 0  0.07340047812292139 0.05208041677374073 0  0.07036483331868422 0.05611408229699371 0  0.06710779471746758 0.05997119215221775 0  0.06363961016777395 0.06363961044580457 0  0.05997119185769423 0.0671077949806699 0  0.05611408199043648 0.07036483356315545 0  0.05208041646011138 0.07340047834545328 0  0.04788288667219424 0.07620517806512757 0  0.04353469959952509 0.07877010810440155 0  0.03904953625361288 0.0810871982397824 0  0.03444150862575319 0.08314915804493853 0  0.02972511527125892 0.08494949983437433 0  0.02491519569911079 0.08648255906987841 0  0.02002688370813498 0.08774351217577761 0  0.01507555973317711 0.08872839172852964 0  0.01007680247056321 0.08943409893306495 0  0.005046339850903815 0.08985841337409189 0  -4.108603002663945e-10 0.08999999999999998 0  -0.005046340651128058 0.08985841332915227 0  -0.01007680323132987 0.08943409884734713 0  -0.01507556046042067 0.08872839160496598 0  -0.02002688439994276 0.087743512017877 0  -0.02491519635271823 0.08648255888157734 0  -0.0297251158812657 0.08494949962092374 0  -0.03444150919979655 0.08314915780716198 0  -0.0390495367848227 0.08108719798396523 0  -0.04353470008708341 0.07877010783493758 0  -0.04788288710837874 0.07620517779105468 0  -0.05208041687207591 0.07340047805314885 0  -0.05611408235967921 0.07036483326869421 0  -0.05997119218936669 0.06710779468426928 0  -0.06363961045638312 0.06363961015719539 0  -0.06710779496524795 0.0599711918749514 0  -0.07036483353481565 0.05611408202597346 0  -0.07340047829786293 0.0520804165271837 0  -0.07620517801542567 0.04788288675129433 0  -0.07877010803616864 0.04353469972298322 0  -0.08108719816439926 0.03904953641014758 0  -0.08314915796545343 0.03444150881764715 0  -0.08494949975473405 0.02972511549885776 0  -0.08648255899529408 0.02491519595799865 0  -0.08774351210779899 0.02002688400596873 0  -0.08872839167537735 0.01507556004600889 0  -0.08943409889365764 0.01007680282031253 0  -0.08985841335271089 0.005046340231627661 0  -0.08985841335093636 -0.005046340263225921 0  -0.08943409888784344 -0.010076802871915 0  -0.08872839166147277 -0.01507556012784546 0  -0.08774351208727944 -0.02002688409587077 0  -0.08648255895998226 -0.02491519608056871 0  -0.08494949970443 -0.02972511564261848 0  -0.08314915789326785 -0.03444150899191855 0  -0.08108719806770617 -0.03904953661093283 0  -0.07877010791694328 -0.04353469993870528 0  -0.07620517786097043 -0.04788288699710844 0  -0.07340047812292139 -0.05208041677374073 0  -0.07036483331868422 -0.05611408229699371 0  -0.06710779471746758 -0.05997119215221775 0  -0.06363961016777395 -0.06363961044580457 0  -0.05997119185769423 -0.0671077949806699 0  -0.05611408199043648 -0.07036483356315545 0  -0.05208041646011138 -0.07340047834545328 0  -0.04788288667219424 -0.07620517806512757 0  -0.04353469959952509 -0.07877010810440155 0  -0.03904953625361288 -0.0810871982397824 0  -0.03444150862575319 -0.08314915804493853 0  -0.02972511527125892 -0.08494949983437433 0  -0.02491519569911079 -0.08648255906987841 0  -0.02002688370813498 -0.08774351217577761 0  -0.01507555973317711 -0.08872839172852964 0  -0.01007680247056321 -0.08943409893306495 0  -0.005046339850903815 -0.08985841337409189 0  4.108603002663945e-10 -0.08999999999999998 0  0.005046340651128058 -0.08985841332915227 0  0.01007680323132987 -0.08943409884734713 0  0.01507556046042067 -0.08872839160496598 0  0.02002688439994276 -0.087743512017877 0  0.02491519635271823 -0.08648255888157734 0  0.0297251158812657 -0.08494949962092374 0  0.03444150919979655 -0.08314915780716198 0  0.0390495367848227 -0.08108719798396523 0  0.04353470008708341 -0.07877010783493758 0  0.04788288710837874 -0.07620517779105468 0  0.05208041687207591 -0.07340047805314885 0  0.05611408235967921 -0.07036483326869421 0  0.05997119218936669 -0.06710779468426928 0  0.06363961045638312 -0.06363961015719539 0  0.06710779496524795 -0.0599711918749514 0  0.07036483353481565 -0.05611408202597346 0  0.07340047829786293 -0.0520804165271837 0  0.07620517801542567 -0.04788288675129433 0  0.07877010803616864 -0.04353469972298322 0  0.08108719816439926 -0.03904953641014758 0  0.08314915796545343 -0.03444150881764715 0  0.08494949975473405 -0.02972511549885776 0  0.08648255899529408 -0.02491519595799865 0  0.08774351210779899 -0.02002688400596873 0  0.08872839167537735 -0.01507556004600889 0  0.08943409889365764 -0.01007680282031253 0  0.08985841335271089 -0.005046340231627661 0  -0.00500944754239857 0.07483251589596568 0  -0.009996521675002607 0.07433081160865394 0  -0.01493894891301631 0.07349712787159977 0  -0.01981465518279603 0.0723351881174501 0  -0.02460186439170638 0.0708501818519338 0  -0.02927919570366359 0.06904874147257549 0  -0.03382575901857785 0.06693891265039416 0  -0.0382212482830776 0.06453011839198296 0  -0.04244603217361292 0.06183311695779711 0  -0.04648124177923869 0.05885995381122853 0  -0.05030885487545737 0.05562390781957135 0  -0.05391177640788835 0.05213943195457593 0  -0.05727391486252012 0.04842208872323452 0  -0.06038025410529377 0.04448848069085025 0  -0.06321692047386479 0.04035617630302769 0  -0.06577124472708602 0.0360436314353834 0  -0.0680318186333347 0.03157010695960741 0  -0.06998854592040422 0.02695558272320353 0  -0.07163268737144876 0.02222066830552772 0  -0.07295689984935144 0.01738651098903125 0  -0.0739552690995418 0.01247470129559654 0  -0.07462333616346334 0.007507176555453011 0  -0.07495811729097636 0.002506122940366535 0  -0.0749581172685639 -0.002506123610722786 0  -0.07462333609968086 -0.007507177189467986 0  -0.07395526899881041 -0.01247470189277447 0  -0.0729568997152908 -0.01738651155157351 0  -0.07163268720939982 -0.02222066882792432 0  -0.06998854573485112 -0.02695558320498096 0  -0.06803181842801129 -0.03157010740206791 0  -0.06577124450337785 -0.03604363184359879 0  -0.06321692024001987 -0.04035617666933978 0  -0.06038025385691791 -0.04448848102794868 0  -0.05727391461620655 -0.04842208901457559 0  -0.05391177616589216 -0.05213943220479814 0  -0.05030885464502066 -0.05562390802798903 0  -0.0464812415573203 -0.05885995398647573 0  -0.04244603197220458 -0.0618331170960561 0  -0.03822124809196912 -0.06453011850517668 0  -0.03382575885175838 -0.06693891273469184 0  -0.02927919555569225 -0.06904874153532076 0  -0.02460186427328055 -0.07085018189305572 0  -0.0198146550866393 -0.07233518814379014 0  -0.01493894884118762 -0.0734971278861996 0  -0.00999652162139668 -0.07433081161586323 0  -0.00500944751500965 -0.07483251589779916 0  0.00500944754239857 -0.07483251589596568 0  0.009996521675002607 -0.07433081160865394 0  0.01493894891301631 -0.07349712787159977 0  0.01981465518279603 -0.0723351881174501 0  0.02460186439170638 -0.0708501818519338 0  0.02927919570366359 -0.06904874147257549 0  0.03382575901857785 -0.06693891265039416 0  0.0382212482830776 -0.06453011839198296 0  0.04244603217361292 -0.06183311695779711 0  0.04648124177923869 -0.05885995381122853 0  0.05030885487545737 -0.05562390781957135 0  0.05391177640788835 -0.05213943195457593 0  0.05727391486252012 -0.04842208872323452 0  0.06038025410529377 -0.04448848069085025 0  0.06321692047386479 -0.04035617630302769 0  0.06577124472708602 -0.0360436314353834 0  0.0680318186333347 -0.03157010695960741 0  0.06998854592040422 -0.02695558272320353 0  0.07163268737144876 -0.02222066830552772 0  0.07295689984935144 -0.01738651098903125 0  0.0739552690995418 -0.01247470129559654 0  0.07462333616346334 -0.007507176555453011 0  0.07495811729097636 -0.002506122940366535 0  0.0749581172685639 0.002506123610722786 0  0.07462333609968086 0.007507177189467986 0  0.07395526899881041 0.01247470189277447 0  0.0729568997152908 0.01738651155157351 0  0.07163268720939982 0.02222066882792432 0  0.06998854573485112 0.02695558320498096 0  0.06803181842801129 0.03157010740206791 0  0.06577124450337785 0.03604363184359879 0  0.06321692024001987 0.04035617666933978 0  0.06038025385691791 0.04448848102794868 0  0.05727391461620655 0.04842208901457559 0  0.05391177616589216 0.05213943220479814 0  0.05030885464502066 0.05562390802798903 0  0.0464812415573203 0.05885995398647573 0  0.04244603197220458 0.0618331170960561 0  0.03822124809196912 0.06453011850517668 0  0.03382575885175838 0.06693891273469184 0  0.02927919555569225 0.06904874153532076 0  0.02460186427328055 0.07085018189305572 0  0.0198146550866393 0.07233518814379014 0  0.01493894884118762 0.0734971278861996 0  0.00999652162139668 0.07433081161586323 0  0.00500944751500965 0.07483251589779916 0  -0.05106359347365226 -0.06039839598965996 0  0.05106359347365227 0.06039839598965997 0  -0.05106359372886297 0.06039839580669364 0  0.05106359372886297 -0.06039839580669364 0  -0.06808042249257726 0.04015095615613713 0  0.06808042249257726 -0.04015095615613713 0  0.06798381954112433 0.04052861631541756 0  -0.06798381954112433 -0.04052861631541756 0  -0.02851187988255734 0.07374259830238544 0  0.02851187988255734 -0.07374259830238544 0  0.02832269961021254 0.07378033637912941 0  -0.02832269961021256 -0.0737803363791294 0  -0.07746923920540866 0.01565730504868836 0  0.07746923920540866 -0.01565730504868836 0  -0.07746349335629765 -0.01585012724735386 0  0.07746349335629765 0.01585012724735385 0  -0.002664852452113146 0.0793027527218301 0  0.002664852452113142 -0.0793027527218301 0  -0.007537728894493508 -0.07853310670471611 0  0.007537728894493506 0.07853310670471611 
[...]
<PointData  Vectors="f_10"> 
<DataArray  type="Float64"  Name="f_10"  NumberOfComponents="3" format="ascii">1.3167145107277468e-04 5.4215602522647619e-07 0.0000000000000000e+00  2.3607084392013298e-08 1.4130367217221292e-04 0.0000000000000000e+00  -1.3056904666106244e-04 -7.2270365951002905e-07 0.0000000000000000e+00  1.0787973272242569e-06 -1.4148421980649691e-04 0.0000000000000000e+00  1.3142950275379884e-04 7.8930683466380267e-06 0.0000000000000000e+00  1.3077652144993980e-04 1.5218392485399352e-05 0.0000000000000000e+00  1.2971254381548213e-04 2.2495934789609076e-05 0.0000000000000000e+00  1.2824335261216478e-04 2.9703134057712454e-05 0.0000000000000000e+00  1.2637113662022497e-04 3.6814145839704622e-05 0.0000000000000000e+00  1.2410464692153995e-04 4.3811369282170772e-05 0.0000000000000000e+00  1.2144847382202124e-04 5.0671627711022500e-05 0.0000000000000000e+00  1.1841230347848994e-04 5.7370425500591285e-05 0.0000000000000000e+00  1.1500471877763337e-04 6.3887845358864703e-05 0.0000000000000000e+00  1.1123757769614123e-04 7.0205353554694171e-05 0.0000000000000000e+00  1.0712181660693940e-04 7.6299139018966175e-05 0.0000000000000000e+00  1.0267154237539768e-04 8.2155082344375203e-05 0.0000000000000000e+00  9.7898598543964436e-05 8.7753216545781264e-05 0.0000000000000000e+00  9.2820229844668765e-05 9.3073108643128627e-05 0.0000000000000000e+00  8.7451786808128768e-05 9.8100055668645528e-05 0.0000000000000000e+00  8.1810312838211382e-05 1.0281778991573687e-04 0.0000000000000000e+00  7.5912094374140068e-05 1.0721199049736275e-04 0.0000000000000000e+00  6.9776995265485942e-05 1.1126897476355162e-04 0.0000000000000000e+00  6.3422923604998624e-05 1.1497572770618854e-04 0.0000000000000000e+00  5.6871713437185988e-05 1.1831892188647222e-04 0.0000000000000000e+00  5.0145624921172225e-05 1.2129133587567478e-04 0.0000000000000000e+00  4.3261300357705292e-05 1.2388069459481356e-04 0.0000000000000000e+00  3.6243649983429403e-05 1.2608106561186048e-04 0.0000000000000000e+00  2.9113355377450992e-05 1.2788380976333898e-04 0.0000000000000000e+00  2.1890634048579728e-05 1.2928480500940694e-04 0.0000000000000000e+00  1.4604695384282804e-05 1.3027774148240039e-04 0.0000000000000000e+00  7.2726431665385653e-06 1.3086071118009044e-04 0.0000000000000000e+00  -8.0440458928303685e-08 1.3103101965136356e-04 0.0000000000000000e+00  -7.4312140651412925e-06 1.3079028578350337e-04 0.0000000000000000e+00  -1.4757917678242826e-05 1.3013645597545560e-04 0.0000000000000000e+00  -2.2033915008135498e-05 1.2907361410528884e-04 0.0000000000000000e+00  -2.9242584710158796e-05 1.2760281024419483e-04 0.0000000000000000e+00  -3.6355139106972984e-05 1.2573162198131581e-04 0.0000000000000000e+00  -4.3351332678660457e-05 1.2346373088229664e-04 0.0000000000000000e+00  -5.0210544572214371e-05 1.2080806624415622e-04 0.0000000000000000e+00  -5.6907538198332772e-05 1.1777110437232230e-04 0.0000000000000000e+00  -6.3426184118163382e-05 1.1436449392588270e-04 0.0000000000000000e+00  -6.9744519837685554e-05 1.1059660423720470e-04 0.0000000000000000e+00  -7.5840210482842262e-05 1.0648110505935722e-04 0.0000000000000000e+00  -8.1695098102613689e-05 1.0203047079201201e-04 0.0000000000000000e+00  -8.7291139501973316e-05 9.7258923186412078e-05 0.0000000000000000e+00  -9.2611153279610329e-05 9.2180004665629362e-05 0.0000000000000000e+00  -9.7638433275896175e-05 8.6811126533912518e-05 0.0000000000000000e+00  -1.0235709652143351e-04 8.1167706004300327e-05 0.0000000000000000e+00  -1.0675038889715109e-04 7.5269012841550781e-05 0.0000000000000000e+00  -1.1080738128522536e-04 6.9135694327127593e-05 0.0000000000000000e+00  -1.1451315030371454e-04 6.2782402997459415e-05 0.0000000000000000e+00  -1.1785785317519458e-04 5.6232528891029083e-05 0.0000000000000000e+00  -1.2082950166808039e-04 4.9504629766190422e-05 0.0000000000000000e+00  -1.2341971179809152e-04 4.2619165147029501e-05 0.0000000000000000e+00  -1.2561834891814622e-04 3.5600394946901034e-05 0.0000000000000000e+00  -1.2742205194682767e-04 2.8471506899636194e-05 0.0000000000000000e+00  -1.2882161077795097e-04 2.1250593934702450e-05 0.0000000000000000e+00  -1.2981531202416766e-04 1.3963668790297614e-05 0.0000000000000000e+00  -1.3039822396947542e-04 6.6318850228718968e-06 0.0000000000000000e+00  -1.3032709834209007e-04 -8.0736159809186081e-06 0.0000000000000000e+00  -1.2967411703823723e-04 -1.5398940119677985e-05 0.0000000000000000e+00  -1.2861013940378686e-04 -2.2676482423886969e-05 0.0000000000000000e+00  -1.2714094820047767e-04 -2.9883681691990927e-05 0.0000000000000000e+00  -1.2526873220854699e-04 -3.6994693473984669e-05 0.0000000000000000e+00  -1.2300224250987135e-04 -4.3991916916453869e-05 0.0000000000000000e+00  -1.2034606941036116e-04 -5.0852175345309094e-05 0.0000000000000000e+00  -1.1730989906683803e-04 -5.7550973134882283e-05 0.0000000000000000e+00  -1.1390231436598821e-04 -6.4068392993160269e-05 0.0000000000000000e+00  -1.1013517328450211e-04 -7.0385901188994507e-05 0.0000000000000000e+00  -1.0601941219530481e-04 -7.6479686653270929e-05 0.0000000000000000e+00  -1.0156913796376699e-04 -8.2335629978683684e-05 0.0000000000000000e+00  -9.6796194132337145e-05 -8.7933764180093363e-05 0.0000000000000000e+00  -9.1717825433044496e-05 -9.3253656277444589e-05 0.0000000000000000e+00  -8.6349382396506491e-05 -9.8280603302965054e-05 0.0000000000000000e+00  -8.0707908426590311e-05 -1.0299833755005931e-04 0.0000000000000000e+00  -7.4809689962519445e-05 -1.0739253813168737e-04 0.0000000000000000e+00  -6.8674590853864926e-05 -1.1144952239787856e-04 0.0000000000000000e+00  -6.2320519193376591e-05 -1.1515627534051657e-04 0.0000000000000000e+00  -5.5769309025562376e-05 -1.1849946952080095e-04 0.0000000000000000e+00  -4.9043220509546466e-05 -1.2147188351000297e-04 0.0000000000000000e+00  -4.2158895946076523e-05 -1.2406124222913954e-04 0.0000000000000000e+00  -3.5141245571797531e-05 -1.2626161324618253e-04 0.0000000000000000e+00  -2.8010950965815881e-05 -1.2806435739765517e-04 0.0000000000000000e+00  -2.0788229636941991e-05 -1.2946535264371712e-04 0.0000000000000000e+00  -1.3502290972642692e-05 -1.3045828911670274e-04 0.0000000000000000e+00  -6.1702387548969566e-06 -1.3104125881438389e-04 0.0000000000000000e+00  1.1828448705701149e-06 -1.3121156728564774e-04 0.0000000000000000e+00  8.5336184767825962e-06 -1.3097083341777864e-04 0.0000000000000000e+00  1.5860322089883062e-05 -1.3031700360972224e-04 0.0000000000000000e+00  2.3136319419773919e-05 -1.2925416173954681e-04 0.0000000000000000e+00  3.0344989121795045e-05 -1.2778335787844540e-04 0.0000000000000000e+00  3.7457543518606462e-05 -1.2591216961555931e-04 0.0000000000000000e+00  4.4453737090290635e-05 -1.2364427851653401e-04 0.0000000000000000e+00  5.1312948983841127e-05 -1.2098861387838802e-04 0.0000000000000000e+00  5.8009942609955225e-05 -1.1795165200654939e-04 0.0000000000000000e+00  6.4528588529781661e-05 -1.1454504156010721e-04 0.0000000000000000e+00  7.0846924249300472e-05 -1.1077715187142874e-04 0.0000000000000000e+00  7.6942614894454537e-05 -1.0666165269358322e-04 0.0000000000000000e+00  8.2797502514224731e-05 -1.0221101842624220e-04 0.0000000000000000e+00  8.8393543913585211e-05 -9.7439470820648717e-05 0.0000000000000000e+00  9.3713557691225722e-05 -9.2360552299873983e-05 0.0000000000000000e+00  9.8740837687517286e-05 -8.6991674168165515e-05 0.0000000000000000e+00  1.0345950093306216e-04 -8.1348253638561822e-05 0.0000000000000000e+00  1.0785279330878869e-04 -7.5449560475820406e-05 0.0000000000000000e+00  1.1190978569687334e-04 -6.9316241961404280e-05 0.0000000000000000e+00  1.1561555471537374e-04 -6.2962950631742214e-05 0.0000000000000000e+00  1.1896025758686505e-04 -5.6413076525316110e-05 0.0000000000000000e+00  1.2193190607976132e-04 -4.9685177400480498e-05 0.0000000000000000e+00  1.2452211620978164e-04 -4.2799712781320852e-05 0.0000000000000000e+00  1.2672075332984358e-04 -3.5780942581192819e-05 0.0000000000000000e+00  1.2852445635853075e-04 -2.8652054533927656e-05 0.0000000000000000e+00  1.2992401518965849e-04 -2.1431141568993143e-05 0.0000000000000000e+00  1.3091771643587878e-04 -1.4144216424586652e-05 0.0000000000000000e+00  1.3150062838118834e-04 -6.8124326571584294e-06 0.0000000000000000e+00  -9.4218702689769742e-06 1.4095276870510279e-04 0.0000000000000000e+00  -1.8812015565133596e-05 1.3997411956462584e-04 0.0000000000000000e+00  -2.8126786543007640e-05 1.3836575076351347e-04 0.0000000000000000e+00  -3.7311206340727364e-05 1.3614056189285951e-04 0.0000000000000000e+00  -4.6326617232454658e-05 1.3330698010513339e-04 0.0000000000000000e+00  -5.5130956791919323e-05 1.2987837692621248e-04 0.0000000000000000e+00  -6.3687880614869222e-05 1.2586854639936974e-04 0.0000000000000000e+00  -7.1957594113111290e-05 1.2129700414987330e-04 0.0000000000000000e+00  -7.9902932749376768e-05 1.1618267128406469e-04 0.0000000000000000e+00  -8.7490163576290131e-05 1.1054850913791176e-04 0.0000000000000000e+00  -9.4682694074881241e-05 1.0442128761591310e-04 0.0000000000000000e+00  -1.0145145197833051e-04 9.7826565645050406e-05 0.0000000000000000e+00  -1.0776307463603520e-04 9.0795894572673547e-05 0.0000000000000000e+00  -1.1359160151183806e-04 8.3357786110600289e-05 0.0000000000000000e+00  -1.1891066556585376e-04 7.5547058767955387e-05 0.0000000000000000e+00  -1.2369561594107636e-04 6.7399672774887053e-05 0.0000000000000000e+00  -1.2792629275533180e-04 5.8949414016342762e-05 0.0000000000000000e+00  -1.3158268595332600e-04 5.0236653046224361e-05 0.0000000000000000e+00  -1.3464889172837215e-04 4.1298594763376519e-05 0.0000000000000000e+00  -1.3711165862421388e-04 3.2175205580163918e-05 0.0000000000000000e+00  -1.3895922236029714e-04 2.2909365123955044e-05 0.0000000000000000e+00  -1.4018383490774057e-04 1.3538190983296818e-05 0.0000000000000000e+00  -1.4077998579795426e-04 4.1088242110873064e-06 0.0000000000000000e+00  -1.4074476939525312e-04 -5.3411360001068368e-06 0.0000000000000000e+00  -1.4007849489356826e-04 -1.4766238124541111e-05 0.0000000000000000e+00  -1.3878396735251237e-04 -2.4127521634080770e-05 0.0000000000000000e+00  -1.3686765301987994e-04 -3.3379437662913587e-05 0.0000000000000000e+00  -1.3433698552291632e-04 -4.2484149166802935e-05 0.0000000000000000e+00  -1.3120466273225487e-04 -5.1399089940184430e-05 0.0000000000000000e+00  -1.2748326868487991e-04 -6.0084107138769986e-05 0.0000000000000000e+00  -1.2318950324051073e-04 -6.8503287488690085e-05 0.0000000000000000e+00  -1.1834478406128431e-04 -7.6614421151480235e-05 0.0000000000000000e+00  -1.1296727593552738e-04 -8.4385332372070580e-05 0.0000000000000000e+00  -1.0708393851008282e-04 -9.1779526227302852e-05 0.0000000000000000e+00  -1.0071941532575982e-04 -9.8763600237068480e-05 0.0000000000000000e+00  -9.3901784438050806e-05 -1.0530808226585299e-04 0.0000000000000000e+00  -8.6663650337545487e-05 -1.1138134942655599e-04 0.0000000000000000e+00  -7.9035028736295764e-05 -1.1695900098887466e-04 0.0000000000000000e+00  -7.1052532662355735e-05 -1.2201336272819038e-04 0.0000000000000000e+00  -6.2748589984027632e-05 -1.2652361310295799e-04 0.0000000000000000e+00  -5.4161939644936945e-05 -1.3046964922416144e-04 0.0000000000000000e+00  -4.5332496600531942e-05 -1.3383272778760014e-04 0.0000000000000000e+00  -3.6295617786777014e-05 -1.3659888501132004e-04 0.0000000000000000e+00  -2.7094677125850313e-05 -1.3875504907684196e-04 0.0000000000000000e+00  -1.7775500756099565e-05 -1.4029307737410777e-04 0.0000000000000000e+00  -8.3679252416986831e-06 -1.4120345722307443e-04 0.0000000000000000e+00  1.0524274680592787e-05 -1.4113331633937824e-04 0.0000000000000000e+00  1.9914419976748927e-05 -1.4015466719889219e-04 0.0000000000000000e+00  2.9229190954622195e-05 -1.3854629839777177e-04 0.0000000000000000e+00  3.8413610752340839e-05 -1.3632110952711048e-04 0.0000000000000000e+00  4.7429021644066865e-05 -1.3348752773937730e-04 0.0000000000000000e+00  5.6233361203530548e-05 -1.3005892456044964e-04 0.0000000000000000e+00  6.4790285026480277e-05 -1.2604909403360072e-04 0.0000000000000000e+00  7.3059998524723700e-05 -1.2147755178409995e-04 0.0000000000000000e+00  8.1005337160991740e-05 -1.1636321891828866e-04 0.0000000000000000e+00  8.8592567987909752e-05 -1.1072905677213477e-04 0.0000000000000000e+00  9.5785098486507380e-05 -1.0460183525013759e-04 0.0000000000000000e+00  1.0255385638996521e-04 -9.8007113279278629e-05 0.0000000000000000e+00  1.0886547904767963e-04 -9.0976442206907313e-05 0.0000000000000000e+00  1.1469400592349284e-04 -8.3538333744840262e-05 0.0000000000000000e+00  1.2001306997751898e-04 -7.5727606402202000e-05 0.0000000000000000e+00  1.2479802035275235e-04 -6.7580220409140416e-05 0.0000000000000000e+00  1.2902869716701766e-04 -5.9129961650603105e-05 0.0000000000000000e+00  1.3268509036502003e-04 -5.0417200680491080e-05 0.0000000000000000e+00  1.3575129614007284e-04 -4.1479142397648625e-05 0.0000000000000000e+00  1.3821406303591912e-04 -3.2355753214440388e-05 0.0000000000000000e+00  1.4006162677200642e-04 -2.3089912758235231e-05 0.0000000000000000e+00  1.4128623931945270e-04 -1.3718738617580458e-05 0.0000000000000000e+00  1.4188239020966709e-04 -4.2893718453747810e-06 0.0000000000000000e+00  1.4184717380696373e-04 5.1605883658155388e-06 0.0000000000000000e+00  1.4118089930527435e-04 1.4585690490245747e-05 0.0000000000000000e+00  1.3988637176421125e-04 2.3946973999781762e-05 0.0000000000000000e+00  1.3797005743157068e-04 3.3198890028611158e-05 0.0000000000000000e+00  1.3543938993459791e-04 4.2303601532497165e-05 0.0000000000000000e+00  1.3230706714392737e-04 5.1218542305875516e-05 0.0000000000000000e+00  1.2858567309654428e-04 5.9903559504458103e-05 0.0000000000000000e+00  1.2429190765216676e-04 6.8322739854374936e-05 0.0000000000000000e+00  1.1944718847293229e-04 7.6433873517162620e-05 0.0000000000000000e+00  1.1406968034717064e-04 8.4204784737750986e-05 0.0000000000000000e+00  1.0818634292172151e-04 9.1598978592980751e-05 0.0000000000000000e+00  1.0182181973739442e-04 9.8583052602744143e-05 0.0000000000000000e+00  9.5004188849681350e-05 1.0512753463152658e-04 0.0000000000000000e+00  8.7766054749172833e-05 1.1120080179222825e-04 0.0000000000000000e+00  8.0137433147920453e-05 1.1677845335454563e-04 0.0000000000000000e+00  7.2154937073978405e-05 1.2183281509386176e-04 0.0000000000000000e+00  6.3850994395648594e-05 1.2634306546863012e-04 0.0000000000000000e+00  5.5264344056556464e-05 1.3028910158983573e-04 0.0000000000000000e+00  4.6434901012150336e-05 1.3365218015327836e-04 0.0000000000000000e+00  3.7398022198394649e-05 1.3641833737700317e-04 0.0000000000000000e+00  2.8197081537467280e-05 1.3857450144253163e-04 0.0000000000000000e+00  1.8877905167716099e-05 1.4011252973980567e-04 0.0000000000000000e+00  9.4703296533149595e-06 1.4102290958878131e-04 0.0000000000000000e+00  -8.8078004208665960e-05 -1.0578209197240629e-04 0.0000000000000000e+00  8.9180408620292642e-05 1.0560154433808056e-04 0.0000000000000000e+00  -8.8926119767748205e-05 1.0488477061883354e-04 0.0000000000000000e+00  9.0028524179367134e-05 -1.0506531825305897e-04 0.0000000000000000e+00  -1.1857591311117060e-04 6.9523102596924708e-05 0.0000000000000000e+00  1.1967831752283684e-04 -6.9703650231183113e-05 0.0000000000000000e+00  1.1870603818423007e-04 7.0995812880236573e-05 0.0000000000000000e+00  -1.1760363377258204e-04 -7.1176360514548117e-05 0.0000000000000000e+00  -4.9717298282309590e-05 1.2838285298166796e-04 0.0000000000000000e+00  5.0819702693925599e-05 -1.2856340061590598e-04 0.0000000000000000e+00  4.9483719766629599e-05 1.2892470638940678e-04 0.0000000000000000e+00  -4.8381315355008562e-05 -1.2910525402373195e-04 0.0000000000000000e+00  -1.3480039595123965e-04 2.6700773138444821e-05 0.0000000000000000e+00  1.3590280036294717e-04 -2.6881320772726925e-05 0.0000000000000000e+00  -1.3448814371216358e-04 -2.8288657674643570e-05 0.0000000000000000e+00  1.3559054812385714e-04 2.8108110040349207e-05 0.0000000000000000e+00  -4.6313864900976995e-06 1.3755193803793430e-04 0.0000000000000000e+00  5.7337909017211960e-06 -1.3773248567221398e-04 0.0000000000000000e+00  -1.2090777865013119e-05 -1.3760141567774117e-04 0.0000000000000000e+00  1.3193182276635968e-05 1.3742086804344306e-04 0.0000000000000000e+00  -1.3703091597512955e-04 -9.9116589317776437e-06 0.0000000000000000e+00  1.3813332038683899e-04 9.7311112974881194e-06 0.0000000000000000e+00  -1.3718223817385473e-04 8.4611057409816250e-06 0.0000000000000000e+00  1.3828464258556838e-04 -8.6416533752677206e-06 0.0000000000000000e+00  3.1893669554020051e-05 1.3430688389660592e-04 0.0000000000000000e+00  -3.0791265142398167e-05 -1.3448743153092119e-04 0.0000000000000000e+00  3.3226439544000789e-05 -1.3416049162990519e-04 0.0000000000000000e+00  -3.2124035132381087e-05 1.3397994399565232e-04 0.0000000000000000e+00  1.2726199888603309e-04 5.4524122429808731e-05 0.0000000000000000e+00  -1.2615959447436772e-04 -5.4704670064112936e-05 0.0000000000000000e+00  1.2788050180898150e-04 -5.3300226525231347e-05 0.0000000000000000e+00  -1.2677809739729349e-04 5.3119678890960454e-05 0.0000000000000000e+00  -7.2954649253807990e-05 -1.1667692373207802e-04 0.0000000000000000e+00  7.4057053665430497e-05 1.1649637609774941e-04 0.0000000000000000e+00  -7.4296203290891982e-05 1.1584745157213613e-04 0.0000000000000000e+00  7.5398607702505436e-05 -1.1602799920636037e-04 0.0000000000000000e+00  1.0242552320088741e-04 9.2999696641140277e-05 0.0000000000000000e+00  -1.0132311878925353e-04 -9.3180244275460888e-05 0.0000000000000000e+00  -1.0217370251353999e-04 9.1790692602605531e-05 0.0000000000000000e+00  1.0327610692517360e-04 -9.1971240236842454e-05 0.0000000000000000e+00  -1.0534307239692805e-04 8.0382924332687584e-05 0.0000000000000000e+00  1.0644547680856420e-04 -8.0563471966945229e-05 0.0000000000000000e+00  1.0552102435998596e-04 8.1534131170005192e-05 0.0000000000000000e+00  -1.0441861994835202e-04 -8.1714678804315678e-05 0.0000000000000000e+00  6.3491619173484029e-05 -1.1722137967322807e-04 0.0000000000000000e+00  -6.2389214761866970e-05 1.1704083203900228e-04 0.0000000000000000e+00  -6.1099682024099054e-05 -1.1794044386370874e-04 0.0000000000000000e+00  6.2202086435721128e-05 1.1775989622938008e-04 0.0000000000000000e+00  -1.2594126579443379e-04 4.1006251572780437e-05 0.0000000000000000e+00  1.2704367020612841e-04 -4.1186799207067267e-05 0.0000000000000000e+00  1.2654967687430492e-04 4.2397338350842387e-05 0.0000000000000000e+00  -1.2544727246263158e-04 -4.2577885985130526e-05 0.0000000000000000e+00  -1.9652994384579802e-05 1.3199486368131475e-04 0.0000000000000000e+00  2.0755398796211359e-05 -1.3217541131557730e-04 0.0000000000000000e+00  3.8857440523634797e-06 1.3302277019975985e-04 0.0000000000000000e+00  -2.7833396407283779e-06 -1.3320331783404869e-04 0.0000000000000000e+00  -1.3137478418101035e-04 -1.8923069561786718e-05 0.0000000000000000e+00  1.3247718859271115e-04 1.8742521927503398e-05 0.0000000000000000e+00  -1.3153753734223311e-04 1.7518760718754662e-05 0.0000000000000000e+00  1.3263994175394383e-04 -1.7699308353042364e-05 0.0000000000000000e+00  -3.8877279716607116e-05 -1.2738494994151474e-04 0.0000000000000000e+00  3.9979684128234035e-05 1.2720440230719145e-04 0.0000000000000000e+00  -4.0074573915778497e-05 1.2682842822839849e-04 0.0000000000000000e+00  4.1176978327405301e-05 -1.2700897586264060e-04 0.0000000000000000e+00  1.1881599411856966e-04 6.1270966951986771e-05 0.0000000000000000e+00  -1.1771358970691836e-04 -6.1451514586285467e-05 0.0000000000000000e+00  -1.1840721080064091e-04 5.9978622993171991e-05 0.0000000000000000e+00  1.1950961521231093e-04 -6.0159170627449660e-05 0.0000000000000000e+00  7.9518249667349478e-05 1.0694502281142723e-04 0.0000000000000000e+00  -7.8415845255727621e-05 -1.0712557044575239e-04 0.0000000000000000e+00  -7.9745506234829843e-05 1.0631827399092013e-04 0.0000000000000000e+00  8.0847910646442348e-05 -1.0649882162514571e-04 0.0000000000000000e+00  -9.1772089825742102e-05 9.5660960914864418e-05 0.0000000000000000e+00  9.2874494237359391e-05 -9.5841508549101342e-05 0.0000000000000000e+00  -9.0943102835