<?xml version="1.0"?>
<VTKFile type="UnstructuredGrid"  version="0.1"  >
<UnstructuredGrid>
<Piece  NumberOfPoints="504" NumberOfCells="802">
<Points>
<DataArray  type="Float64"  NumberOfComponents="3"  format="ascii">0.09 0 0  0 0.075 0  -0.09 0 0  0 -0.075 0  0.08985841335093636 0.005046340263225921 0  0.08943409888784344 0.010076802871915 0  0.08872839166147277 0.01507556012784546 0  0.08774351208727944 0.02002688409587077 0  0.08648255895998226 0.02491519608056871 0  0.08494949970443 0.02972511564261848 0  0.08314915789326785 0.03444150899191855 0  0.08108719806770617 0.03904953661093283 0  0.07877010791694328 0.04353469993870528 0  0.07620517786097043 0.04788288699710844 0  0.07340047812292139 0.05208041677374073 0  0.07036483331868422 0.05611408229699371 0  0.06710779471746758 0.05997119215221775 0  0.06363961016777395 0.06363961044580457 0  0.05997119185769423 0.0671077949806699 0  0.05611408199043648 0.07036483356315545 0  0.05208041646011138 0.07340047834545328 0  0.04788288667219424 0.07620517806512757 0  0.04353469959952509 0.07877010810440155 0  0.03904953625361288 0.0810871982397824 0  0.03444150862575319 0.08314915804493853 0  0.02972511527125892 0.08494949983437433 0  0.02491519569911079 0.08648255906987841 0  0.02002688370813498 0.08774351217577761 0  0.01507555973317711 0.08872839172852964 0  0.01007680247056321 0.08943409893306495 0  0.005046339850903815 0.08985841337409189 0  -4.108603002663945e-10 0.08999999999999998 0  -0.005046340651128058 0.08985841332915227 0  -0.01007680323132987 0.08943409884734713 0  -0.01507556046042067 0.08872839160496598 0  -0.02002688439994276 0.087743512017877 0  -0.02491519635271823 0.08648255888157734 0  -0.0297251158812657 0.08494949962092374 0  -0.03444150919979655 0.08314915780716198 0  -0.0390495367848227 0.08108719798396523 0  -0.04353470008708341 0.07877010783493758 0  -0.04788288710837874 0.07620517779105468 0  -0.05208041687207591 0.07340047805314885 0  -0.05611408235967921 0.07036483326869421 0  -0.05997119218936669 0.06710779468426928 0  -0.06363961045638312 0.06363961015719539 0  -0.06710779496524795 0.0599711918749514 0  -0.07036483353481565 0.05611408202597346 0  -0.07340047829786293 0.0520804165271837 0  -0.07620517801542567 0.04788288675129433 0  -0.07877010803616864 0.04353469972298322 0  -0.08108719816439926 0.03904953641014758 0  -0.08314915796545343 0.03444150881764715 0  -0.08494949975473405 0.02972511549885776 0  -0.08648255899529408 0.02491519595799865 0  -0.08774351210779899 0.02002688400596873 0  -0.08872839167537735 0.01507556004600889 0  -0.08943409889365764 0.01007680282031253 0  -0.08985841335271089 0.005046340231627661 0  -0.08985841335093636 -0.005046340263225921 0  -0.08943409888784344 -0.010076802871915 0  -0.08872839166147277 -0.01507556012784546 0  -0.08774351208727944 -0.02002688409587077 0  -0.08648255895998226 -0.02491519608056871 0  -0.08494949970443 -0.02972511564261848 0  -0.08314915789326785 -0.03444150899191855 0  -0.08108719806770617 -0.03904953661093283 0  -0.07877010791694328 -0.04353469993870528 0  -0.07620517786097043 -0.04788288699710844 0  -0.07340047812292139 -0.05208041677374073 0  -0.07036483331868422 -0.05611408229699371 0  -0.06710779471746758 -0.05997119215221775 0  -0.06363961016777395 -0.06363961044580457 0  -0.05997119185769423 -0.0671077949806699 0  -0.05611408199043648 -0.07036483356315545 0  -0.05208041646011138 -0.07340047834545328 0  -0.04788288667219424 -0.07620517806512757 0  -0.04353469959952509 -0.07877010810440155 0  -0.03904953625361288 -0.0810871982397824 0  -0.03444150862575319 -0.08314915804493853 0  -0.02972511527125892 -0.08494949983437433 0  -0.02491519569911079 -0.08648255906987841 0  -0.02002688370813498 -0.08774351217577761 0  -0.01507555973317711 -0.08872839172852964 0  -0.01007680247056321 -0.08943409893306495 0  -0.005046339850903815 -0.08985841337409189 0  4.108603002663945e-10 -0.08999999999999998 0  0.005046340651128058 -0.08985841332915227 0  0.01007680323132987 -0.08943409884734713 0  0.01507556046042067 -0.08872839160496598 0  0.02002688439994276 -0.087743512017877 0  0.02491519635271823 -0.08648255888157734 0  0.0297251158812657 -0.08494949962092374 0  0.03444150919979655 -0.08314915780716198 0  0.0390495367848227 -0.08108719798396523 0  0.04353470008708341 -0.07877010783493758 0  0.04788288710837874 -0.07620517779105468 0  0.05208041687207591 -0.07340047805314885 0  0.05611408235967921 -0.07036483326869421 0  0.05997119218936669 -0.06710779468426928 0  0.06363961045638312 -0.06363961015719539 0  0.06710779496524795 -0.0599711918749514 0  0.07036483353481565 -0.05611408202597346 0  0.07340047829786293 -0.0520804165271837 0  0.07620517801542567 -0.04788288675129433 0  0.07877010803616864 -0.04353469972298322 0  0.08108719816439926 -0.03904953641014758 0  0.08314915796545343 -0.03444150881764715 0  0.08494949975473405 -0.02972511549885776 0  0.08648255899529408 -0.02491519595799865 0  0.08774351210779899 -0.02002688400596873 0  0.08872839167537735 -0.01507556004600889 0  0.08943409889365764 -0.01007680282031253 0  0.08985841335271089 -0.005046340231627661 0  -0.00500944754239857 0.07483251589596568 0  -0.009996521675002607 0.07433081160865394 0  -0.01493894891301631 0.07349712787159977 0  -0.01981465518279603 0.0723351881174501 0  -0.02460186439170638 0.0708501818519338 0  -0.02927919570366359 0.06904874147257549 0  -0.03382575901857785 0.06693891265039416 0  -0.0382212482830776 0.06453011839198296 0  -0.04244603217361292 0.06183311695779711 0  -0.04648124177923869 0.05885995381122853 0  -0.05030885487545737 0.05562390781957135 0  -0.05391177640788835 0.05213943195457593 0  -0.05727391486252012 0.04842208872323452 0  -0.06038025410529377 0.04448848069085025 0  -0.06321692047386479 0.04035617630302769 0  -0.06577124472708602 0.0360436314353834 0  -0.0680318186333347 0.03157010695960741 0  -0.06998854592040422 0.02695558272320353 0  -0.07163268737144876 0.02222066830552772 0  -0.07295689984935144 0.01738651098903125 0  -0.0739552690995418 0.01247470129559654 0  -0.07462333616346334 0.007507176555453011 0  -0.07495811729097636 0.002506122940366535 0  -0.0749581172685639 -0.002506123610722786 0  -0.07462333609968086 -0.007507177189467986 0  -0.07395526899881041 -0.01247470189277447 0  -0.0729568997152908 -0.01738651155157351 0  -0.07163268720939982 -0.02222066882792432 0  -0.06998854573485112 -0.02695558320498096 0  -0.06803181842801129 -0.03157010740206791 0  -0.06577124450337785 -0.03604363184359879 0  -0.06321692024001987 -0.04035617666933978 0  -0.06038025385691791 -0.04448848102794868 0  -0.05727391461620655 -0.04842208901457559 0  -0.05391177616589216 -0.05213943220479814 0  -0.05030885464502066 -0.05562390802798903 0  -0.0464812415573203 -0.05885995398647573 0  -0.04244603197220458 -0.0618331170960561 0  -0.03822124809196912 -0.06453011850517668 0  -0.03382575885175838 -0.06693891273469184 0  -0.02927919555569225 -0.06904874153532076 0  -0.02460186427328055 -0.07085018189305572 0  -0.0198146550866393 -0.07233518814379014 0  -0.01493894884118762 -0.0734971278861996 0  -0.00999652162139668 -0.07433081161586323 0  -0.00500944751500965 -0.07483251589779916 0  0.00500944754239857 -0.07483251589596568 0  0.009996521675002607 -0.07433081160865394 0  0.01493894891301631 -0.07349712787159977 0  0.01981465518279603 -0.0723351881174501 0  0.02460186439170638 -0.0708501818519338 0  0.02927919570366359 -0.06904874147257549 0  0.03382575901857785 -0.06693891265039416 0  0.0382212482830776 -0.06453011839198296 0  0.04244603217361292 -0.06183311695779711 0  0.04648124177923869 -0.05885995381122853 0  0.05030885487545737 -0.05562390781957135 0  0.05391177640788835 -0.05213943195457593 0  0.05727391486252012 -0.04842208872323452 0  0.06038025410529377 -0.04448848069085025 0  0.06321692047386479 -0.04035617630302769 0  0.06577124472708602 -0.0360436314353834 0  0.0680318186333347 -0.03157010695960741 0  0.06998854592040422 -0.02695558272320353 0  0.07163268737144876 -0.02222066830552772 0  0.07295689984935144 -0.01738651098903125 0  0.0739552690995418 -0.01247470129559654 0  0.07462333616346334 -0.007507176555453011 0  0.07495811729097636 -0.002506122940366535 0  0.0749581172685639 0.002506123610722786 0  0.07462333609968086 0.007507177189467986 0  0.07395526899881041 0.01247470189277447 0  0.0729568997152908 0.01738651155157351 0  0.07163268720939982 0.02222066882792432 0  0.06998854573485112 0.02695558320498096 0  0.06803181842801129 0.03157010740206791 0  0.06577124450337785 0.03604363184359879 0  0.06321692024001987 0.04035617666933978 0  0.06038025385691791 0.04448848102794868 0  0.05727391461620655 0.04842208901457559 0  0.05391177616589216 0.05213943220479814 0  0.05030885464502066 0.05562390802798903 0  0.0464812415573203 0.05885995398647573 0  0.04244603197220458 0.0618331170960561 0  0.03822124809196912 0.06453011850517668 0  0.03382575885175838 0.06693891273469184 0  0.02927919555569225 0.06904874153532076 0  0.02460186427328055 0.07085018189305572 0  0.0198146550866393 0.07233518814379014 0  0.01493894884118762 0.0734971278861996 0  0.00999652162139668 0.07433081161586323 0  0.00500944751500965 0.07483251589779916 0  -0.05106359347365226 -0.06039839598965996 0  0.05106359347365227 0.06039839598965997 0  -0.05106359372886297 0.06039839580669364 0  0.05106359372886297 -0.06039839580669364 0  -0.06808042249257726 0.04015095615613713 0  0.06808042249257726 -0.04015095615613713 0  0.06798381954112433 0.04052861631541756 0  -0.06798381954112433 -0.04052861631541756 0  -0.02851187988255734 0.07374259830238544 0  0.02851187988255734 -0.07374259830238544 0  0.02832269961021254 0.07378033637912941 0  -0.02832269961021256 -0.0737803363791294 0  -0.07746923920540866 0.01565730504868836 0  0.07746923920540866 -0.01565730504868836 0  -0.07746349335629765 -0.01585012724735386 0  0.07746349335629765 0.01585012724735385 0  -0.002664852452113146 0.0793027527218301 0  0.002664852452113142 -0.0793027527218301 0  -0.007537728894493508 -0.07853310670471611 0  0.007537728894493506 0.07853310670471611 
[...]
<PointData  Vectors="f_41"> 
<DataArray  type="Float64"  Name="f_41"  NumberOfComponents="3" format="ascii">7.5830863280009243e-05 5.4219086196585522e-07 0.0000000000000000e+00  2.3841927364729064e-08 8.0144000112334699e-05 0.0000000000000000e+00  -7.4728458868297058e-05 -7.2273849624940776e-07 0.0000000000000000e+00  1.0785624842515476e-06 -8.0324547746618718e-05 0.0000000000000000e+00  7.5676665852940776e-05 4.7621016092365398e-06 0.0000000000000000e+00  7.5286961709651609e-05 8.9662299355633248e-06 0.0000000000000000e+00  7.4660829089419304e-05 1.3142142470803056e-05 0.0000000000000000e+00  7.3802715109508863e-05 1.7277312729967215e-05 0.0000000000000000e+00  7.2712717689001332e-05 2.1355477745190167e-05 0.0000000000000000e+00  7.1397603847587270e-05 2.5368321090009580e-05 0.0000000000000000e+00  6.9858442692406625e-05 2.9302388282521276e-05 0.0000000000000000e+00  6.8101552645258797e-05 3.3142041223439683e-05 0.0000000000000000e+00  6.6131671675991865e-05 3.6876514116247869e-05 0.0000000000000000e+00  6.3955950917961608e-05 4.0496214654370999e-05 0.0000000000000000e+00  6.1580199992000083e-05 4.3985710589642154e-05 0.0000000000000000e+00  5.9013596487126469e-05 4.7338964807436898e-05 0.0000000000000000e+00  5.6261463420693152e-05 5.0544037268517485e-05 0.0000000000000000e+00  5.3334885946138454e-05 5.3587801080010053e-05 0.0000000000000000e+00  5.0242537581461677e-05 5.6462926777003532e-05 0.0000000000000000e+00  4.6994220463214231e-05 5.9159847080258836e-05 0.0000000000000000e+00  4.3598713418011168e-05 6.1670535503085557e-05 0.0000000000000000e+00  4.0068067574613362e-05 6.3987346340323427e-05 0.0000000000000000e+00  3.6411726688080622e-05 6.6102686038471676e-05 0.0000000000000000e+00  3.2643366604857798e-05 6.8008042206291932e-05 0.0000000000000000e+00  2.8776230423210477e-05 6.9701246137323037e-05 0.0000000000000000e+00  2.4818159941843039e-05 7.1173580139397192e-05 0.0000000000000000e+00  2.0784943846352037e-05 7.2422751942313623e-05 0.0000000000000000e+00  1.6687709333673604e-05 7.3443181004741111e-05 0.0000000000000000e+00  1.2536939059726733e-05 7.4233218478831603e-05 0.0000000000000000e+00  8.3524809694620463e-06 7.4788197922143426e-05 0.0000000000000000e+00  4.1416014287178545e-06 7.5107904475256069e-05 0.0000000000000000e+00  -8.0358506819872300e-08 7.5190294470687231e-05 0.0000000000000000e+00  -4.3000765873314224e-06 7.5037418966864992e-05 0.0000000000000000e+00  -8.5058035344824609e-06 7.4646747950468437e-05 0.0000000000000000e+00  -1.2680233951327468e-05 7.4021992583751521e-05 0.0000000000000000e+00  -1.6816935987099783e-05 7.3162164780730349e-05 0.0000000000000000e+00  -2.0896435107043451e-05 7.2073306503481693e-05 0.0000000000000000e+00  -2.4908188308465066e-05 7.0756626539518426e-05 0.0000000000000000e+00  -2.8841149734996182e-05 6.9218007400882330e-05 0.0000000000000000e+00  -3.2679170723791973e-05 6.7460243205270858e-05 0.0000000000000000e+00  -3.6414956972619774e-05 6.5491470794115810e-05 0.0000000000000000e+00  -4.0035555310183645e-05 6.3314978406166860e-05 0.0000000000000000e+00  -4.3526827525095272e-05 6.0939627531804543e-05 0.0000000000000000e+00  -4.6879032807323769e-05 5.8372481233565695e-05 0.0000000000000000e+00  -5.0081950080073517e-05 5.5621771113352392e-05 0.0000000000000000e+00  -5.3125844318634292e-05 5.2694703595143662e-05 0.0000000000000000e+00  -5.6001278487851725e-05 4.9601989498188114e-05 0.0000000000000000e+00  -5.8699121944278231e-05 4.6351611332931154e-05 0.0000000000000000e+00  -6.1208750833703494e-05 4.2955612646847016e-05 0.0000000000000000e+00  -6.3525695246685756e-05 3.9426588111792947e-05 0.0000000000000000e+00  -6.5640077400083957e-05 3.5771076863072819e-05 0.0000000000000000e+00  -6.7547102002472314e-05 3.2004151485618199e-05 0.0000000000000000e+00  -6.9239479854355895e-05 2.8135387479449247e-05 0.0000000000000000e+00  -7.0712657252476019e-05 2.4176128920750964e-05 0.0000000000000000e+00  -7.1959915433052082e-05 2.0141742326452731e-05 0.0000000000000000e+00  -7.2981380632868999e-05 1.6045685453764180e-05 0.0000000000000000e+00  -7.3769856486022572e-05 1.1896790719872557e-05 0.0000000000000000e+00  -7.4325709639273238e-05 7.7114757281455429e-06 0.0000000000000000e+00  -7.4645463981472452e-05 3.5009171782110299e-06 0.0000000000000000e+00  -7.4574261441232061e-05 -4.9426492435171195e-06 0.0000000000000000e+00  -7.4184557297949033e-05 -9.1467775698419479e-06 0.0000000000000000e+00  -7.3558424677724047e-05 -1.3322690105080945e-05 0.0000000000000000e+00  -7.2700310697821724e-05 -1.7457860364245694e-05 0.0000000000000000e+00  -7.1610313277323395e-05 -2.1536025379470208e-05 0.0000000000000000e+00  -7.0295199435918616e-05 -2.5548868724292684e-05 0.0000000000000000e+00  -6.8756038280746469e-05 -2.9482935916807873e-05 0.0000000000000000e+00  -6.6999148233606840e-05 -3.3322588857730633e-05 0.0000000000000000e+00  -6.5029267264346698e-05 -3.7057061750543461e-05 0.0000000000000000e+00  -6.2853546506322513e-05 -4.0676762288671342e-05 0.0000000000000000e+00  -6.0477795580365493e-05 -4.4166258223946908e-05 0.0000000000000000e+00  -5.7911192075495776e-05 -4.7519512441745413e-05 0.0000000000000000e+00  -5.5159059009065895e-05 -5.0724584902829618e-05 0.0000000000000000e+00  -5.2232481534514232e-05 -5.3768348714326008e-05 0.0000000000000000e+00  -4.9140133169839387e-05 -5.6643474411323024e-05 0.0000000000000000e+00  -4.5891816051593187e-05 -5.9340394714581303e-05 0.0000000000000000e+00  -4.2496309006390552e-05 -6.1851083137410125e-05 0.0000000000000000e+00  -3.8965663162992332e-05 -6.4167893974650380e-05 0.0000000000000000e+00  -3.5309322276458562e-05 -6.6283233672799713e-05 0.0000000000000000e+00  -3.1540962193234186e-05 -6.8188589840620660e-05 0.0000000000000000e+00  -2.7673826011584701e-05 -6.9881793771651236e-05 0.0000000000000000e+00  -2.3715755530214261e-05 -7.1354127773723115e-05 0.0000000000000000e+00  -1.9682539434720175e-05 -7.2603299576635562e-05 0.0000000000000000e+00  -1.5585304922038469e-05 -7.3623728639057317e-05 0.0000000000000000e+00  -1.1434534648088987e-05 -7.4413766113141819e-05 0.0000000000000000e+00  -7.2500765578219309e-06 -7.4968745556445809e-05 0.0000000000000000e+00  -3.0391970170762365e-06 -7.5288452109549507e-05 0.0000000000000000e+00  1.1827629184616860e-06 -7.5370842104971494e-05 0.0000000000000000e+00  5.4024809989727278e-06 -7.5217966601140283e-05 0.0000000000000000e+00  9.6082079461226847e-06 -7.4827295584735135e-05 0.0000000000000000e+00  1.3782638362965910e-05 -7.4202540218009546e-05 0.0000000000000000e+00  1.7919340398736039e-05 -7.3342712414980880e-05 0.0000000000000000e+00  2.1998839518676926e-05 -7.2253854137725122e-05 0.0000000000000000e+00  2.6010592720095227e-05 -7.0937174173755797e-05 0.0000000000000000e+00  2.9943554146622938e-05 -6.9398555035114158e-05 0.0000000000000000e+00  3.3781575135414412e-05 -6.7640790839497983e-05 0.0000000000000000e+00  3.7517361384238039e-05 -6.5672018428340292e-05 0.0000000000000000e+00  4.1137959721798576e-05 -6.3495526040390868e-05 0.0000000000000000e+00  4.4629231936707506e-05 -6.1120175166030577e-05 0.0000000000000000e+00  4.7981437218934831e-05 -5.8553028867795883e-05 0.0000000000000000e+00  5.1184354491685399e-05 -5.5802318747589052e-05 0.0000000000000000e+00  5.4228248730249677e-05 -5.2875251229388331e-05 0.0000000000000000e+00  5.7103682899472856e-05 -4.9782537132441144e-05 0.0000000000000000e+00  5.9801526355906816e-05 -4.6532158967192641e-05 0.0000000000000000e+00  6.2311155245341085e-05 -4.3136160281116655e-05 0.0000000000000000e+00  6.4628099658333715e-05 -3.9607135746069640e-05 0.0000000000000000e+00  6.6742481811743164e-05 -3.5951624497355638e-05 0.0000000000000000e+00  6.8649506414142797e-05 -3.2184699119905260e-05 0.0000000000000000e+00  7.0341884266036882e-05 -2.8315935113739317e-05 0.0000000000000000e+00  7.1815061664166140e-05 -2.4356676555042301e-05 0.0000000000000000e+00  7.3062319844749372e-05 -2.0322289960744512e-05 0.0000000000000000e+00  7.4083785044571995e-05 -1.6226233088055632e-05 0.0000000000000000e+00  7.4872260897730053e-05 -1.2077338354163241e-05 0.0000000000000000e+00  7.5428114050984379e-05 -7.8920233624345896e-06 0.0000000000000000e+00  7.5747868393185368e-05 -3.6814648124975650e-06 0.0000000000000000e+00  -5.3365426387068324e-06 7.9929998464629999e-05 0.0000000000000000e+00  -1.0660394867269476e-05 7.9360655873154790e-05 0.0000000000000000e+00  -1.5944809634757666e-05 7.8431670334536572e-05 0.0000000000000000e+00  -2.1153168940303779e-05 7.7153934501903742e-05 0.0000000000000000e+00  -2.6264724834036560e-05 7.5531333913845595e-05 0.0000000000000000e+00  -3.1254927812711896e-05 7.3571796773882933e-05 0.0000000000000000e+00  -3.6104226418355749e-05 7.1282399664991775e-05 0.0000000000000000e+00  -4.0789634148568955e-05 6.8675208204284097e-05 0.0000000000000000e+00  -4.5289812760774758e-05 6.5760118901003173e-05 0.0000000000000000e+00  -4.9586450499748782e-05 6.2550458547766139e-05 0.0000000000000000e+00  -5.3657727302089144e-05 5.9062100045286920e-05 0.0000000000000000e+00  -5.7488450401010009e-05 5.5308877489493881e-05 0.0000000000000000e+00  -6.1058462618173394e-05 5.1309555014001615e-05 0.0000000000000000e+00  -6.4353784650571580e-05 4.7079094833347197e-05 0.0000000000000000e+00  -6.7359689314811750e-05 4.2638188272142709e-05 0.0000000000000000e+00  -7.0061651971755736e-05 3.8007465041609263e-05 0.0000000000000000e+00  -7.2448928172732624e-05 3.3205193980516225e-05 0.0000000000000000e+00  -7.4509752490015992e-05 2.8255415676795749e-05 0.0000000000000000e+00  -7.6235130771436314e-05 2.3178482276391607e-05 0.0000000000000000e+00  -7.7618137667694371e-05 1.7997220102185583e-05 0.0000000000000000e+00  -7.8651500343054914e-05 1.2736698751405820e-05 0.0000000000000000e+00  -7.9331330725556374e-05 7.4163842568842790e-06 0.0000000000000000e+00  -7.9654576998312878e-05 2.0651868383853124e-06 0.0000000000000000e+00  -7.9619269789865007e-05 -3.2974433943799828e-06 0.0000000000000000e+00  -7.9225985067672819e-05 -8.6444415167567850e-06 0.0000000000000000e+00  -7.8476239401323945e-05 -1.3954863571201569e-05 0.0000000000000000e+00  -7.7374121863483045e-05 -1.9201432402728313e-05 0.0000000000000000e+00  -7.5923231577826669e-05 -2.4364005472088920e-05 0.0000000000000000e+00  -7.4131718501467726e-05 -2.9417838607739718e-05 0.0000000000000000e+00  -7.2005889173710856e-05 -3.4339883011764217e-05 0.0000000000000000e+00  -6.9555567508128863e-05 -3.9111015185218031e-05 0.0000000000000000e+00  -6.6793848446474829e-05 -4.3705545520166728e-05 0.0000000000000000e+00  -6.3729473781568257e-05 -4.8106645199731102e-05 0.0000000000000000e+00  -6.0379304797900473e-05 -5.2293185951868238e-05 0.0000000000000000e+00  -5.6756408033177440e-05 -5.6245878138210911e-05 0.0000000000000000e+00  -5.2876832873041754e-05 -5.9948873046730331e-05 0.0000000000000000e+00  -4.8759962194605559e-05 -6.3383284713039019e-05 0.0000000000000000e+00  -4.4421940738218811e-05 -6.6536453086818594e-05 0.0000000000000000e+00  -3.9884578557998337e-05 -6.9391597751726928e-05 0.0000000000000000e+00  -3.5164944103045237e-05 -7.1937450652285358e-05 0.0000000000000000e+00  -3.0285923231472590e-05 -7.4163076319154692e-05 0.0000000000000000e+00  -2.5270593981450082e-05 -7.6057088151638204e-05 0.0000000000000000e+00  -2.0137567013146126e-05 -7.7612186886889090e-05 0.0000000000000000e+00  -1.4912683183467874e-05 -7.8820959538275991e-05 0.0000000000000000e+00  -9.6237582921413071e-06 -7.9679195297000950e-05 0.0000000000000000e+00  -4.2829259691166430e-06 -8.0180387404761070e-05 0.0000000000000000e+00  6.4389470503226472e-06 -8.0110546098905466e-05 0.0000000000000000e+00  1.1762799278884799e-05 -7.9541203507421069e-05 0.0000000000000000e+00  1.7047214046372235e-05 -7.8612217968794868e-05 0.0000000000000000e+00  2.2255573351917250e-05 -7.7334482136154678e-05 0.0000000000000000e+00  2.7367129245648767e-05 -7.5711881548089512e-05 0.0000000000000000e+00  3.2357332224323134e-05 -7.3752344408120195e-05 0.0000000000000000e+00  3.7206630829966791e-05 -7.1462947299222681e-05 0.0000000000000000e+00  4.1892038560181339e-05 -6.8855755838510694e-05 0.0000000000000000e+00  4.6392217172389730e-05 -6.5940666535227113e-05 0.0000000000000000e+00  5.0688854911368457e-05 -6.2731006181989212e-05 0.0000000000000000e+00  5.4760131713715297e-05 -5.9242647679511388e-05 0.0000000000000000e+00  5.8590854812644679e-05 -5.5489425123722036e-05 0.0000000000000000e+00  6.2160867029817829e-05 -5.1490102648235394e-05 0.0000000000000000e+00  6.5456189062226342e-05 -4.7259642467587210e-05 0.0000000000000000e+00  6.8462093726476974e-05 -4.2818735906389357e-05 0.0000000000000000e+00  7.1164056383431681e-05 -3.8188012675862646e-05 0.0000000000000000e+00  7.3551332584418489e-05 -3.3385741614776628e-05 0.0000000000000000e+00  7.5612156901709948e-05 -2.8435963311062454e-05 0.0000000000000000e+00  7.7337535183137073e-05 -2.3359029910663679e-05 0.0000000000000000e+00  7.8720542079399657e-05 -1.8177767736462043e-05 0.0000000000000000e+00  7.9753904754764171e-05 -1.2917246385685990e-05 0.0000000000000000e+00  8.0433735137268450e-05 -7.5969318911679114e-06 0.0000000000000000e+00  8.0756981410025767e-05 -2.2457344726727882e-06 0.0000000000000000e+00  8.0721674201575592e-05 3.1168957600886874e-06 0.0000000000000000e+00  8.0328389479378891e-05 8.4638938824614178e-06 0.0000000000000000e+00  7.9578643813022794e-05 1.3774315936902561e-05 0.0000000000000000e+00  7.8476526275173829e-05 1.9020884768425883e-05 0.0000000000000000e+00  7.7025635989508184e-05 2.4183457837783143e-05 0.0000000000000000e+00  7.5234122913140337e-05 2.9237290973430820e-05 0.0000000000000000e+00  7.3108293585375241e-05 3.4159335377452341e-05 0.0000000000000000e+00  7.0657971919784886e-05 3.8930467550902855e-05 0.0000000000000000e+00  6.7896252858122842e-05 4.3524997885849045e-05 0.0000000000000000e+00  6.4831878193211568e-05 4.7926097565411474e-05 0.0000000000000000e+00  6.1481709209539203e-05 5.2112638317546150e-05 0.0000000000000000e+00  5.7858812444812022e-05 5.6065330503886540e-05 0.0000000000000000e+00  5.3979237284672318e-05 5.9768325412403906e-05 0.0000000000000000e+00  4.9862366606232904e-05 6.3202737078711294e-05 0.0000000000000000e+00  4.5524345149843507e-05 6.6355905452489567e-05 0.0000000000000000e+00  4.0986982969621027e-05 6.9211050117398308e-05 0.0000000000000000e+00  3.6267348514666186e-05 7.1756903017957524e-05 0.0000000000000000e+00  3.1388327643092099e-05 7.3982528684828999e-05 0.0000000000000000e+00  2.6372998393068476e-05 7.5876540517316401e-05 0.0000000000000000e+00  2.1239971424763754e-05 7.7431639252572234e-05 0.0000000000000000e+00  1.6015087595084833e-05 7.8640411903965572e-05 0.0000000000000000e+00  1.0726162703757839e-05 7.9498647662698866e-05 0.0000000000000000e+00  5.3853303807329160e-06 7.9999839770467999e-05 0.0000000000000000e+00  -4.9722388929747121e-05 -6.0414788956320171e-05 0.0000000000000000e+00  5.0824793341373796e-05 6.0234241321994431e-05 0.0000000000000000e+00  -5.0570507968148846e-05 5.9517463776632278e-05 0.0000000000000000e+00  5.1672912379767741e-05 -5.9698011410857688e-05 0.0000000000000000e+00  -6.7385733186746185e-05 3.9333286113675962e-05 0.0000000000000000e+00  6.8488137598412440e-05 -3.9513833747934373e-05 0.0000000000000000e+00  6.7696561421048550e-05 4.0586456856925142e-05 0.0000000000000000e+00  -6.6594157009400523e-05 -4.0767004491236651e-05 0.0000000000000000e+00  -2.8289107025143064e-05 7.2961374529679183e-05 0.0000000000000000e+00  2.9391511436759080e-05 -7.3141922163917245e-05 0.0000000000000000e+00  2.8184214779449590e-05 7.3439699305145921e-05 0.0000000000000000e+00  -2.7081810367828522e-05 -7.3620246939471085e-05 0.0000000000000000e+00  -7.6547786626986528e-05 1.4927347542263725e-05 0.0000000000000000e+00  7.7650191038694091e-05 -1.5107895176545804e-05 0.0000000000000000e+00  -7.6276771979033405e-05 -1.6377776952215705e-05 0.0000000000000000e+00  7.7379176390726982e-05 1.6197229317921349e-05 0.0000000000000000e+00  -2.6394797516936148e-06 7.8278192694734001e-05 0.0000000000000000e+00  3.7418841633171143e-06 -7.8458740329013737e-05 0.0000000000000000e+00  -6.4072405302197564e-06 -7.8386699583838252e-05 0.0000000000000000e+00  7.5096449418426084e-06 7.8206151949540057e-05 0.0000000000000000e+00  -7.7757901635434250e-05 -5.9200771828065963e-06 0.0000000000000000e+00  7.8860306047143697e-05 5.7395295485170745e-06 0.0000000000000000e+00  -7.7870490942750183e-05 4.5389257184505116e-06 0.0000000000000000e+00  7.8972895354463858e-05 -4.7194733527366088e-06 0.0000000000000000e+00  1.8160624328575084e-05 7.6472376061704112e-05 0.0000000000000000e+00  -1.7058219916953194e-05 -7.6652923696019409e-05 0.0000000000000000e+00  1.9384238582825150e-05 -7.6356650286890957e-05 0.0000000000000000e+00  -1.8281834171205465e-05 7.6176102652638109e-05 0.0000000000000000e+00  7.2590139779688103e-05 3.1219619720037962e-05 0.0000000000000000e+00  -7.1487735368022743e-05 -3.1400167354342167e-05 0.0000000000000000e+00  7.3127514928114206e-05 -3.0160227140711234e-05 0.0000000000000000e+00  -7.2025110516426172e-05 2.9979679506440321e-05 0.0000000000000000e+00  -4.1097628661591171e-05 -6.6598903498571126e-05 0.0000000000000000e+00  4.2200033073213699e-05 6.6418355864242547e-05 0.0000000000000000e+00  -4.2257310449187799e-05 6.5780029649499351e-05 0.0000000000000000e+00  4.3359714860801260e-05 -6.5960577283723576e-05 0.0000000000000000e+00  5.8383744140490228e-05 5.3078792573757542e-05 0.0000000000000000e+00  -5.7281339728856357e-05 -5.3259340208078139e-05 0.0000000000000000e+00  -5.8096950140438177e-05 5.2045247893941445e-05 0.0000000000000000e+00  5.9199354552071770e-05 -5.2225795528178355e-05 0.0000000000000000e+00  -6.0238080295360525e-05 4.5780013783296518e-05 0.0000000000000000e+00  6.1340484706996686e-05 -4.5960561417554197e-05 0.0000000000000000e+00  6.0497473635325648e-05 4.6852293101023105e-05 0.0000000000000000e+00  -5.9395069223691683e-05 -4.7032840735333565e-05 0.0000000000000000e+00  3.6819037493256290e-05 -6.7036912977995816e-05 0.0000000000000000e+00  -3.5716633081639244e-05 6.6856365343770046e-05 0.0000000000000000e+00  -3.4518391510557654e-05 -6.7688717064429989e-05 0.0000000000000000e+00  3.5620795922179755e-05 6.7508169430101369e-05 0.0000000000000000e+00  -7.1955230622797916e-05 2.3193656624860123e-05 0.0000000000000000e+00  7.3057635034492563e-05 -2.3374204259146977e-05 0.0000000000000000e+00  7.2614843077493431e-05 2.4483634268848088e-05 0.0000000000000000e+00  -7.1512438665820088e-05 -2.4664181903136234e-05 0.0000000000000000e+00  -1.1261571546913827e-05 7.5438508172946762e-05 0.0000000000000000e+00  1.2363975958545369e-05 -7.5619055807209340e-05 0.0000000000000000e+00  2.2016602347518819e-06 7.6118455123953355e-05 0.0000000000000000e+00  -1.0992558231167914e-06 -7.6299002758242266e-05 0.0000000000000000e+00  -7.4923628434513711e-05 -1.1125192097067148e-05 0.0000000000000000e+00  7.6026032846214525e-05 1.0944644462783826e-05 0.0000000000000000e+00  -7.5087868489986939e-05 9.7329591841934039e-06 0.0000000000000000e+00  7.6190272901697701e-05 -9.9135068184811105e-06 0.0000000000000000e+00  -2.1770209573115718e-05 -7.3027598219825500e-05 0.0000000000000000e+00  2.2872613984742663e-05 7.2847050585502152e-05 0.0000000000000000e+00  -2.2947939970576481e-05 7.2476848500076802e-05 0.0000000000000000e+00  2.4050344382203315e-05 -7.2657396134318875e-05 0.0000000000000000e+00  6.8126737615013561e-05 3.5261934551959555e-05 0.0000000000000000e+00  -6.7024333203362228e-05 -3.5442482186258224e-05 0.0000000000000000e+00  -6.7653987551066812e-05 3.4061394518331881e-05 0.0000000000000000e+00  6.8756391962736848e-05 -3.4241942152609529e-05 0.0000000000000000e+00  4.5556527816549902e-05 6.1348820708038147e-05 0.0000000000000000e+00  -4.4454123404928127e-05 -6.1529368342363297e-05 0.0000000000000000e+00  -4.5612068944672003e-05 6.0656958731027425e-05 0.0000000000000000e+00  4.6714473356284529e-05 -6.0837506365252985e-05 0.0000000000000000e+00  -5.2496940377200012e-05 5.4554149522157601e-05 0.0000000000000000e+00  5.3599344788817363e-05 -5.4734697156394511e-05 0.0000000000000000e+00  -5.1627120525