<?xml version="1.0"?>
<VTKFile type="UnstructuredGrid"  version="0.1"  >
<UnstructuredGrid>
<Piece  NumberOfPoints="4221" NumberOfCells="8000">
<Points>
<DataArray  type="Float64"  NumberOfComponents="3"  format="ascii">0 0 0  0.05 0 0  0.1 0 0  0.15 0 0  0.2 0 0  0.25 0 0  0.3 0 0  0.35 0 0  0.4 0 0  0.45 0 0  0.5 0 0  0.55 0 0  0.6 0 0  0.65 0 0  0.7 0 0  0.75 0 0  0.8 0 0  0.85 0 0  0.9 0 0  0.95 0 0  1 0 0  1.05 0 0  1.1 0 0  1.15 0 0  1.2 0 0  1.25 0 0  1.3 0 0  1.35 0 0  1.4 0 0  1.45 0 0  1.5 0 0  1.55 0 0  1.6 0 0  1.65 0 0  1.7 0 0  1.75 0 0  1.8 0 0  1.85 0 0  1.9 0 0  1.95 0 0  2 0 0  2.05 0 0  2.1 0 0  2.15 0 0  2.2 0 0  2.25 0 0  2.3 0 0  2.35 0 0  2.4 0 0  2.45 0 0  2.5 0 0  2.55 0 0  2.6 0 0  2.65 0 0  2.7 0 0  2.75 0 0  2.8 0 0  2.85 0 0  2.9 0 0  2.95 0 0  3 0 0  3.05 0 0  3.1 0 0  3.15 0 0  3.2 0 0  3.25 0 0  3.3 0 0  3.35 0 0  3.4 0 0  3.45 0 0  3.5 0 0  3.55 0 0  3.6 0 0  3.65 0 0  3.7 0 0  3.75 0 0  3.8 0 0  3.85 0 0  3.9 0 0  3.95 0 0  4 0 0  4.05 0 0  4.1 0 0  4.15 0 0  4.2 0 0  4.25 0 0  4.3 0 0  4.35 0 0  4.4 0 0  4.45 0 0  4.5 0 0  4.55 0 0  4.6 0 0  4.65 0 0  4.7 0 0  4.75 0 0  4.8 0 0  4.85 0 0  4.9 0 0  4.95 0 0  5 0 0  5.05 0 0  5.1 0 0  5.15 0 0  5.2 0 0  5.25 0 0  5.3 0 0  5.35 0 0  5.4 0 0  5.45 0 0  5.5 0 0  5.55 0 0  5.6 0 0  5.65 0 0  5.7 0 0  5.75 0 0  5.8 0 0  5.85 0 0  5.9 0 0  5.95 0 0  6 0 0  6.05 0 0  6.1 0 0  6.15 0 0  6.2 0 0  6.25 0 0  6.3 0 0  6.35 0 0  6.4 0 0  6.45 0 0  6.5 0 0  6.55 0 0  6.6 0 0  6.65 0 0  6.7 0 0  6.75 0 0  6.8 0 0  6.85 0 0  6.9 0 0  6.95 0 0  7 0 0  7.05 0 0  7.1 0 0  7.15 0 0  7.2 0 0  7.25 0 0  7.3 0 0  7.35 0 0  7.4 0 0  7.45 0 0  7.5 0 0  7.55 0 0  7.6 0 0  7.65 0 0  7.7 0 0  7.75 0 0  7.8 0 0  7.85 0 0  7.9 0 0  7.95 0 0  8 0 0  8.050000000000001 0 0  8.1 0 0  8.15 0 0  8.199999999999999 0 0  8.25 0 0  8.300000000000001 0 0  8.35 0 0  8.4 0 0  8.449999999999999 0 0  8.5 0 0  8.550000000000001 0 0  8.6 0 0  8.65 0 0  8.699999999999999 0 0  8.75 0 0  8.800000000000001 0 0  8.85 0 0  8.9 0 0  8.949999999999999 0 0  9 0 0  9.050000000000001 0 0  9.1 0 0  9.15 0 0  9.199999999999999 0 0  9.25 0 0  9.300000000000001 0 0  9.35 0 0  9.4 0 0  9.449999999999999 0 0  9.5 0 0  9.550000000000001 0 0  9.6 0 0  9.65 0 0  9.699999999999999 0 0  9.75 0 0  9.800000000000001 0 0  9.85 0 0  9.9 0 0  9.949999999999999 0 0  10 0 0  0 0.05 0  0.05 0.05 0  0.1 0.05 0  0.15 0.05 0  0.2 0.05 0  0.25 0.05 0  0.3 0.05 0  0.35 0.05 0  0.4 0.05 0  0.45 0.05 0  0.5 0.05 0  0.55 0.05 0  0.6 0.05 0  0.65 0.05 0  0.7 0.05 0  0.75 0.05 0  0.8 0.05 0  0.85 0.05 0  0.9 0.05 0  0.95 0.05 0  1 0.05 0  1.05 0.05 0  1.1 0.05 0  1.15 0.05 0  1.2 0.05 0  1.25 0.05 0  1.3 0.05 0  1.35 0.05 0  1.4 0.05 0  1.45 0.05 0  1.5 0.05 0  1.55 0.05 0  1.6 0.05 0  1.65 0.05 0  1.7 0.05 0  1.75 0.05 0  1.8 0.05 0  1.85 0.05 0  1.9 0.05 0  1.95 0.05 0  2 0.05 0  2.05 0.05 0  2.1 0.05 0  2.15 0.05 0  2.2 0.05 0  2.25 0.05 0  2.3 0.05 0  2.35 0.05 0  2.4 0.05 0  2.45 0.05 0  2.5 0.05 0  2.55 0.05 0  2.6 0.05 0  2.65 0.05 0  2.7 0.05 0  2.75 0.05 0  2.8 0.05 0  2.85 0.05 0  2.9 0.05 0  2.95 0.05 0  3 0.05 0  3.05 0.05 0  3.1 0.05 0  3.15 0.05 0  3.2 0.05 0  3.25 0.05 0  3.3 0.05 0  3.35 0.05 0  3.4 0.05 0  3.45 0.05 0  3.5 0.05 0  3.55 0.05 0  3.6 0.05 0  3.65 0.05 0  3.7 0.05 0  3.75 0.05 0  3.8 0.05 0  3.85 0.05 0  3.9 0.05 0  3.95 0.05 0  4 0.05 0  4.05 0.05 0  4.1 0.05 0  4.15 0.05 0  4.2 0.05 0  4.25 0.05 0  4.3 0.05 0  4.35 0.05 0  4.4 0.05 0  4.45 0.05 0  4.5 0.05 0  4.55 0.05 0  4.6 0.05 0  4.65 0.05 0  4.7 0.05 0  4.75 0.05 0  4.8 0.05 0  4.85 0.05 0  4.9 0.05 0  4.95 0.05 0  5 0.05 0  5.05 0.05 0  5.1 0.05 0  5.15 0.05 0  5.2 0.05 0  5.25 0.05 0  5.3 0.05 0  5.35 0.05 0  5.4 0.05 0  5.45 0.05 0  5.5 0.05 0  5.55 0.05 0  5.6 0.05 0  5.65 0.05 0  5.7 0.05 0  5.75 0.05 0  5.8 0.05 0  5.85 0.05 0  5.9 0.05 0  5.95 0.05 0  6 0.05 0  6.05 0.05 0  6.1 0.05 0  6.15 0.05 0  6.2 0.05 0  6.25 0.05 0  6.3 0.05 0  6.35 0.05 0  6.4 0.05 0  6.45 0.05 0  6.5 0.05 0  6.55 0.05 0  6.6 0.05 0  6.65 0.05 0  6.7 0.05 0  6.75 0.05 0  6.8 0.05 0  6.85 0.05 0  6.9 0.05 0  6.95 0.05 0  7 0.05 0  7.05 0.05 0  7.1 0.05 0  7.15 0.05 0  7.2 0.05 0  7.25 0.05 0  7.3 0.05 0  7.35 0.05 0  7.4 0.05 0  7.45 0.05 0  7.5 0.05 0  7.55 0.05 0  7.6 0.05 0  7.65 0.05 0  7.7 0.05 0  7.75 0.05 0  7.8 0.05 0  7.85 0.05 0  7.9 0.05 0  7.95 0.05 0  8 0.05 0  8.050000000000001 0.05 0  8.1 0.05 0  8.15 0.05 0  8.199999999999999 0.05 0  8.25 0.05 0  8.300000000000001 0.05 0  8.35 0.05 0  8.4 0.05 0  8.449999999999999 0.05 0  8.5 0.05 0  8.550000000000001 0.05 0  8.6 0.05 0  8.65 0.05 0  8.699999999999999 0.05 0  8.75 0.05 0  8.800000000000001 0.05 0  8.85 0.05 0  8.9 0.05 0  8.949999999999999 0.05 0  9 0.05 0  9.050000000000001 0.05 0  9.1 0.05 0  9.15 0.05 0  9.199999999999999 0.05 0  9.25 0.05 0  9.300000000000001 0.05 0  9.35 0.05 0  9.4 0.05 0  9.449999999999999 0.05 0  9.5 0.05 0  9.550000000000001 0.05 0  9.6 0.05 0  9.65 0.05 0  9.699999999999999 0.05 0  9.75 0.05 0  9.800000000000001 0.05 0  9.85 0.05 0  9.9 0.05 0  9.949999999999999 0.05 0  10 0.05 0  0 0.1 0  0.05 0.1 0  0.1 0.1 0  0.15 0.1 0  0.2 0.1 0  0.25 0.1 0  0.3 0.1 0  0.35 0.1 0  0.4 0.1 0  0.45 0.1 0  0.5 0.1 0  0.55 0.1 0  0.6 0.1 0  0.65 0.1 0  0.7 0.1 0  0.75 0.1 0  0.8 0.1 0  0.85 0.1 0  0.9 0.1 0  0.95 0.1 0  1 0.1 0  1.05 0.1 0  1.1 0.1 0  1.15 0.1 0  1.2 0.1 0  1.25 0.1 0  1.3 0.1 0  1.35 0.1 0  1.4 0.1 0  1.45 0.1 0  1.5 0.1 0  1.55 0.1 0  1.6 0.1 0  1.65 0.1 0  1.7 0.1 0  1.75 0.1 0  1.8 0.1 0  1.85 0.1 0  1.9 0.1 0  1.95 0.1 0  2 0.1 0  2.05 0.1 0  2.1 0.1 0  2.15 0.1 0  2.2 0.1 0  2.25 0.1 0  2.3 0.1 0  2.35 0.1 0  2.4 0.1 0  2.45 0.1 0  2.5 0.1 0  2.55 0.1 0  2.6 0.1 0  2.65 0.1 0  2.7 0.1 0  2.75 0.1 0  2.8 0.1 0  2.85 0.1 0  2.9 0.1 0  2.95 0.1 0  3 0.1 0  3.05 0.1 0  3.1 0.1 0  3.15 0.1 0  3.2 0.1 0  3.25 0.1 0  3.3 0.1 0  3.35 0.1 0  3.4 0.1 0  3.45 0.1 0  3.5 0.1 0  3.55 0.1 0  3.6 0.1 0  3.65 0.1 0  3.7 0.1 0  3.75 0.1 0  3.8 0.1 0  3.85 0.1 0  3.9 0.1 0  3.95 0.1 0  4 0.1 0  4.05 0.1 0  4.1 0.1 0  4.15 0.1 0  4.2 0.1 0  4.25 0.1 0  4.3 0.1 0  4.35 0.1 0  4.4 0.1 0  4.45 0.1 0  4.5 0.1 0  4.55 0.1 0  4.6 0.1 0  4.65 0.1 0  4.7 0.1 0  4.75 0.1 0  4.8 0.1 0  4.85 0.1 0  4.9 0.1 0  4.95 0.1 0  5 0.1 0  5.05 0.1 0  5.1 0.1 0  5.15 0.1 0  5.2 0.1 0  5.25 0.1 0  5.3 0.1 0  5.35 0.1 0  5.4 0.1 0  5.45 0.1 0  5.5 0.1 0  5.55 0.1 0  5.6 0.1 0  5.65 0.1 0  5.7 0.1 0  5.75 0.1 0  5.8 0.1 0  5.85 0.1 0  5.9 0.1 0  5.95 0.1 0  6 0.1 0  6.05 0.1 0  6.1 0.1 0  6.15 0.1 0  6.2 0.1 0  6.25 0.1 0  6.3 0.1 0  6.35 0.1 0  6.4 0.1 0  6.45 0.1 0  6.5 0.1 0  6.55 0.1 0  6.6 0.1 0  6.65 0.1 0  6.7 0.1 0  6.75 0.1 0  6.8 0.1 0  6.85 0.1 0  6.9 0.1 0  6.95 0.1 0  7 0.1 0  7.05 0.1 0  7.1 0.1 0  7.15 0.1 0  7.2 0.1 0  7.25 0.1 0  7.3 0.1 0  7.35 0.1 0  7.4 0.1 0  7.45 0.1 0  7.5 0.1 0  7.55 0.1 0  7.6 0.1 0  7.65 0.1 0  7.7 0.1 0  7.75 0.1 0  7.8 0.1 0  7.85 0.1 0  7.9 0.1 0  7.95 0.1 0  8 0.1 0  8.050000000000001 0.1 0  8.1 0.1 0  8.15 0.1 0  8.199999999999999 0.1 0  8.25 0.1 0  8.300000000000001 0.1 0  8.35 0.1 0  8.4 0.1 0  8.449999999999999 0.1 0  8.5 0.1 0  8.550000000000001 0.1 0  8.6 0.1 0  8.65 0.1 0  8.699999999999999 0.1 0  8.75 0.1 0  8.800000000000001 0.1 0  8.85 0.1 0  8.9 0.1 0  8.949999999999999 0.1 0  9 0.1 0  9.050000000000001 0.1 0  9.1 0.1 0  9.15 0.1 0  9.199999999999999 0.1 0  9.25 0.1 0  9.300000000000001 0.1 0  9.35 0.1 0  9.4 0.1 0  9.449999999999999 0.1 0  9.5 0.1 0  9.550000000000001 0.1 0  9.6 0.1 0  9.65 0.1 0  9.699999999999999 0.1 0  9.75 0.1 0  9.800000000000001 0.1 0  9.85 0.1 0  9.9 0.1 0  9.949999999999999 0.1 0  10 0.1 0  0 0.15 0  0.05 0.15 0  0.1 0.15 0  0.15 0.15 0  0.2 0.15 0  0.25 0.15 0  0.3 0.15 0  0.35 0.15 0  0.4 0.15 0  0.45 0.15 0  0.5 0.15 0  0.55 0.15 0  0.6 0.15 0  0.65 0.15 0  0.7 0.15 0  0.75 0.15 0  0.8 0.15 0  0.85 0.15 0  0.9 0.15 0  0.95 0.15 0  1 0.15 0  1.05 0.15 0  1.1 0.15 0  1.15 0.15 0  1.2 0.15 0  1.25 0.15 0  1.3 0.15 0  1.35 0.15 0  1.4 0.15 0  1.45 0.15 0  1.5 0.15 0  1.55 0.15 0  1.6 0.15 0  1.65 0.15 0  1.7 0.15 0  1.75 0.15 0  1.8 0.15 0  1.85 0.15 0  1.9 0.15 0  1.95 0.15 0  2 0.15 0  2.05 0.15 0  2.1 0.15 0  2.15 0.15 0  2.2 0.15 0  2.25 0.15 0  2.3 0.15 0  2.35 0.15 0  2.4 0.15 0  2.45 0.15 0  2.5 0.15 0  2.55 0.15 0  2.6 0.15 0  2.65 0.15 0  2.7 0.15 0  2.75 0.15 0  2.8 0.15 0  2.85 0.15 0  2.9 0.15 0  2.95 0.15 0  3 0.15 0  3.05 0.15 0  3.1 0.15 0  3.15 0.15 0  3.2 0.15 0  3.25 0.15 0  3.3 0.15 0  3.35 0.15 0  3.4 0.15 0  3.45 0.15 0  3.5 0.15 0  3.55 0.15 0  3.6 0.15 0  3.65 0.15 0  3.7 0.15 0  3.75 0.15 0  3.8 0.15 0  3.85 0.15 0  3.9 0.15 0  3.95 0.15 0  4 0.15 0  4.05 0.15 0  4.1 0.15 0  4.15 0.15 0  4.2 0.15 0  4.25 0.15 0  4.3 0.15 0  4.35 0.15 0  4.4 0.15 0  4.45 0.15 0  4.5 0.15 0  4.55 0.15 0  4.6 0.15 0  4.65 0.15 0  4.7 0.15 0  4.75 0.15 0  4.8 0.15 0  4.85 0.15 0  4.9 0.15 0  4.95 0.15 0  5 0.15 0  5.05 0.15 0  5.1 0.15 0  5.15 0.15 0  5.2 0.15 0  5.25 0.15 0  5.3 0.15 0  5.35 0.15 0  5.4 0.15 0  5.45 0.15 0  5.5 0.15 0  5.55 0.15 0  5.6 0.15 0  5.65 0.15 0  5.7 0.15 0  5.75 0.15 0  5.8 0.15 0  5.85 0.15 0  5.9 0.15 0  5.95 0.15 0  6 0.15 0  6.05 0.15 0  6.1 0.15 0  6.15 0.15 0  6.2 0.15 0  6.25 0.15 0  6.3 0.15 0  6.35 0.15 0  6.4 0.15 0  6.45 0.15 0  6.5 0.15 0  6.55 0.15 0  6.6 0.15 0  6.65 0.15 0  6.7 0.15 0  6.75 0.15 0  6.8 0.15 0  6.85 0.15 0  6.9 0.15 0  6.95 0.15 0  7 0.15 0  7.05 0.15 0  7.1 0.15 0  7.15 0.15 0  7.2 0.15 0  7.25 0.15 0  7.3 0.15 0  7.35 0.15 0  7.4 0.15 0  7.45 0.15 0  7.5 0.15 0  7.55 0.15 0  7.6 0.15 0  7.65 0.15 0  7.7 0.15 0  7.75 0.15 0  7.8 0.15 0  7.85 0.15 0  7.9 0.15 0  7.95 0.15 0  8 0.15 0  8.050000000000001 0.15 0  8.1 0.15 0  8.15 0.15 0  8.199999999999999 0.15 0  8.25 0.15 0  8.300000000000001 0.15 0  8.35 0.15 0  8.4 0.15 0  8.449999999999999 0.15 0  8.5 0.15 0  8.550000000000001 0.15 0  8.6 0.15 0  8.65 0.15 0  8.699999999999999 0.15 0  8.75 0.15 0  8.800000000000001 0.15 0  8.85 0.15 0  8.9 0.15 0  8.949999999999999 0.15 0  9 0.15 0  9.050000000000001 0.15 0  9.1 0.15 0  9.15 0.15 0  9.199999999999999 0.15 0  9.25 0.15 0  9.300000000000001 0.15 
[...]
<PointData  Vectors="f_8"> 
<DataArray  type="Float64"  Name="f_8"  NumberOfComponents="3" format="ascii">0.0000000000000000e+00 0.0000000000000000e+00 0.0000000000000000e+00  -1.7357635676713711e-06 -9.7992045724754529e-07 0.0000000000000000e+00  -3.2190179722496541e-06 -1.6619002226834566e-06 0.0000000000000000e+00  -4.6326445157086203e-06 -2.3387018726974937e-06 0.0000000000000000e+00  -6.0217689535426966e-06 -3.0805222921128984e-06 0.0000000000000000e+00  -7.4001205246213563e-06 -3.9184612859436361e-06 0.0000000000000000e+00  -8.7713941709862371e-06 -4.8691606623504554e-06 0.0000000000000000e+00  -1.0135796046996687e-05 -5.9419457994639009e-06 0.0000000000000000e+00  -1.1492393325705753e-05 -7.1419872117576192e-06 0.0000000000000000e+00  -1.2840001174156952e-05 -8.4719683428326199e-06 0.0000000000000000e+00  -1.4177511062156138e-05 -9.9330403443604492e-06 0.0000000000000000e+00  -1.5503996312988332e-05 -1.1525394944622725e-05 0.0000000000000000e+00  -1.6818728180639017e-05 -1.3248618807051521e-05 0.0000000000000000e+00  -1.8121157669341424e-05 -1.5101917177763389e-05 0.0000000000000000e+00  -1.9410886540090585e-05 -1.7084256772839236e-05 0.0000000000000000e+00  -2.0687637428361183e-05 -1.9194457590797644e-05 0.0000000000000000e+00  -2.1951227031501472e-05 -2.1431251913720510e-05 0.0000000000000000e+00  -2.3201543633393493e-05 -2.3793322038004818e-05 0.0000000000000000e+00  -2.4438529026815236e-05 -2.6279324169950713e-05 0.0000000000000000e+00  -2.5662164384744226e-05 -2.8887903336440368e-05 0.0000000000000000e+00  -2.6872459458334429e-05 -3.1617702495221952e-05 0.0000000000000000e+00  -2.8069444466232894e-05 -3.4467367938417785e-05 0.0000000000000000e+00  -2.9253164099147698e-05 -3.7435552361482613e-05 0.0000000000000000e+00  -3.0423673149909288e-05 -4.0520916490808197e-05 0.0000000000000000e+00  -3.1581033369671909e-05 -4.3722129845239032e-05 0.0000000000000000e+00  -3.2725311234297255e-05 -4.7037870996683622e-05 0.0000000000000000e+00  -3.3856576376763289e-05 -5.0466827557270359e-05 0.0000000000000000e+00  -3.4974900500556122e-05 -5.4007696031185561e-05 0.0000000000000000e+00  -3.6080356636127883e-05 -5.7659181612253744e-05 0.0000000000000000e+00  -3.7173018639138191e-05 -6.1419997972504348e-05 0.0000000000000000e+00  -3.8252960857097018e-05 -6.5288867065029573e-05 0.0000000000000000e+00  -3.9320257911903310e-05 -6.9264518951412841e-05 0.0000000000000000e+00  -4.0374984561156205e-05 -7.3345691656610630e-05 0.0000000000000000e+00  -4.1417215612292343e-05 -7.7531131050251583e-05 0.0000000000000000e+00  -4.2447025871620590e-05 -8.1819590751473669e-05 0.0000000000000000e+00  -4.3464490116006586e-05 -8.6209832053778891e-05 0.0000000000000000e+00  -4.4469683078940800e-05 -9.0700623866389547e-05 0.0000000000000000e+00  -4.5462679445481885e-05 -9.5290742668912212e-05 0.0000000000000000e+00  -4.6443553852457307e-05 -9.9978972476563819e-05 0.0000000000000000e+00  -4.7412380891583674e-05 -1.0476410481368088e-04 0.0000000000000000e+00  -4.8369235114028036e-05 -1.0964493869366682e-04 0.0000000000000000e+00  -4.9314191035499230e-05 -1.1462028060390732e-04 0.0000000000000000e+00  -5.0247323141329459e-05 -1.1968894449449722e-04 0.0000000000000000e+00  -5.1168705891244846e-05 -1.2484975176987984e-04 0.0000000000000000e+00  -5.2078413723674594e-05 -1.3010153128269935e-04 0.0000000000000000e+00  -5.2976521059540650e-05 -1.3544311932932866e-04 0.0000000000000000e+00  -5.3863102305525992e-05 -1.4087335964666132e-04 0.0000000000000000e+00  -5.4738231856849248e-05 -1.4639110340984826e-04 0.0000000000000000e+00  -5.5601984099590756e-05 -1.5199520923074060e-04 0.0000000000000000e+00  -5.6454433412620150e-05 -1.5768454315685161e-04 0.0000000000000000e+00  -5.7295654169178570e-05 -1.6345797867069900e-04 0.0000000000000000e+00  -5.8125720738164019e-05 -1.6931439668941929e-04 0.0000000000000000e+00  -5.8944707485166456e-05 -1.7525268556457663e-04 0.0000000000000000e+00  -5.9752688773292992e-05 -1.8127174108210580e-04 0.0000000000000000e+00  -6.0549738963819327e-05 -1.8737046646234322e-04 0.0000000000000000e+00  -6.1335932416698534e-05 -1.9354777236011352e-04 0.0000000000000000e+00  -6.2111343490953700e-05 -1.9980257686485055e-04 0.0000000000000000e+00  -6.2876046544977290e-05 -2.0613380550073152e-04 0.0000000000000000e+00  -6.3630115936756112e-05 -2.1254039122681767e-04 0.0000000000000000e+00  -6.4373626024036485e-05 -2.1902127443718957e-04 0.0000000000000000e+00  -6.5106651164444180e-05 -2.2557540296107482e-04 0.0000000000000000e+00  -6.5829265715568102e-05 -2.3220173206296412e-04 0.0000000000000000e+00  -6.6541544035017149e-05 -2.3889922444271302e-04 0.0000000000000000e+00  -6.7243560480456514e-05 -2.4566685023563370e-04 0.0000000000000000e+00  -6.7935389409629047e-05 -2.5250358701257175e-04 0.0000000000000000e+00  -6.8617105180365581e-05 -2.5940841977997096e-04 0.0000000000000000e+00  -6.9288782150587954e-05 -2.6638034097992955e-04 0.0000000000000000e+00  -6.9950494678306706e-05 -2.7341835049024375e-04 0.0000000000000000e+00  -7.0602317121615683e-05 -2.8052145562444534e-04 0.0000000000000000e+00  -7.1244323838684504e-05 -2.8768867113183232e-04 0.0000000000000000e+00  -7.1876589187750347e-05 -2.9491901919749232e-04 0.0000000000000000e+00  -7.2499187527108749e-05 -3.0221152944232032e-04 0.0000000000000000e+00  -7.3112193215106255e-05 -3.0956523892303184e-04 0.0000000000000000e+00  -7.3715680610132308e-05 -3.1697919213217725e-04 0.0000000000000000e+00  -7.4309724070612058e-05 -3.2445244099814835e-04 0.0000000000000000e+00  -7.4894397954999999e-05 -3.3198404488518401e-04 0.0000000000000000e+00  -7.5469776621774721e-05 -3.3957307059337584e-04 0.0000000000000000e+00  -7.6035934429433827e-05 -3.4721859235866911e-04 0.0000000000000000e+00  -7.6592945736490546e-05 -3.5491969185286697e-04 0.0000000000000000e+00  -7.7140884901470035e-05 -3.6267545818363005e-04 0.0000000000000000e+00  -7.7679826282906909e-05 -3.7048498789447849e-04 0.0000000000000000e+00  -7.8209844239342737e-05 -3.7834738496479270e-04 0.0000000000000000e+00  -7.8731013129324073e-05 -3.8626176080981044e-04 0.0000000000000000e+00  -7.9243407311401743e-05 -3.9422723428063025e-04 0.0000000000000000e+00  -7.9747101144129023e-05 -4.0224293166420886e-04 0.0000000000000000e+00  -8.0242168986061142e-05 -4.1030798668336175e-04 0.0000000000000000e+00  -8.0728685195754590e-05 -4.1842154049676224e-04 0.0000000000000000e+00  -8.1206724131766832e-05 -4.2658274169894190e-04 0.0000000000000000e+00  -8.1676360152655524e-05 -4.3479074632028959e-04 0.0000000000000000e+00  -8.2137667616978427e-05 -4.4304471782705086e-04 0.0000000000000000e+00  -8.2590720883293835e-05 -4.5134382712133029e-04 0.0000000000000000e+00  -8.3035594310158941e-05 -4.5968725254108669e-04 0.0000000000000000e+00  -8.3472362256131630e-05 -4.6807417986013581e-04 0.0000000000000000e+00  -8.3901099079769503e-05 -4.7650380228815055e-04 0.0000000000000000e+00  -8.4321879139629538e-05 -4.8497532047065941e-04 0.0000000000000000e+00  -8.4734776794268563e-05 -4.9348794248904712e-04 0.0000000000000000e+00  -8.5139866402243188e-05 -5.0204088386055455e-04 0.0000000000000000e+00  -8.5537222322109769e-05 -5.1063336753827740e-04 0.0000000000000000e+00  -8.5926918912424875e-05 -5.1926462391116846e-04 0.0000000000000000e+00  -8.6309030531744196e-05 -5.2793389080403412e-04 0.0000000000000000e+00  -8.6683631538624032e-05 -5.3664041347753824e-04 0.0000000000000000e+00  -8.7050796291620358e-05 -5.4538344462820034e-04 0.0000000000000000e+00  -8.7410599149288564e-05 -5.5416224438839458e-04 0.0000000000000000e+00  -8.7763114470184531e-05 -5.6297608032635090e-04 0.0000000000000000e+00  -8.8108416612863786e-05 -5.7182422744615584e-04 0.0000000000000000e+00  -8.8446579935881571e-05 -5.8070596818775018e-04 0.0000000000000000e+00  -8.8777678797793440e-05 -5.8962059242693076e-04 0.0000000000000000e+00  -8.9101787557154812e-05 -5.9856739747535010e-04 0.0000000000000000e+00  -8.9418980572520903e-05 -6.0754568808051533e-04 0.0000000000000000e+00  -8.9729332202446942e-05 -6.1655477642578907e-04 0.0000000000000000e+00  -9.0032916805488550e-05 -6.2559398213039201e-04 0.0000000000000000e+00  -9.0329808740200672e-05 -6.3466263224939761e-04 0.0000000000000000e+00  -9.0620082365138998e-05 -6.4376006127373484e-04 0.0000000000000000e+00  -9.0903812038858892e-05 -6.5288561113018961e-04 0.0000000000000000e+00  -9.1181072119915678e-05 -6.6203863118140195e-04 0.0000000000000000e+00  -9.1451936966864680e-05 -6.7121847822586972e-04 0.0000000000000000e+00  -9.1716480938261100e-05 -6.8042451649794403e-04 0.0000000000000000e+00  -9.1974778392660329e-05 -6.8965611766783248e-04 0.0000000000000000e+00  -9.2226903688617814e-05 -6.9891266084159932e-04 0.0000000000000000e+00  -9.2472931184688675e-05 -7.0819353256116040e-04 0.0000000000000000e+00  -9.2712935239428561e-05 -7.1749812680429179e-04 0.0000000000000000e+00  -9.2946990211392538e-05 -7.2682584498462302e-04 0.0000000000000000e+00  -9.3175170459135917e-05 -7.3617609595163830e-04 0.0000000000000000e+00  -9.3397550341214319e-05 -7.4554829599067930e-04 0.0000000000000000e+00  -9.3614204216182717e-05 -7.5494186882294238e-04 0.0000000000000000e+00  -9.3825206442596257e-05 -7.6435624560547985e-04 0.0000000000000000e+00  -9.4030631379009926e-05 -7.7379086493119871e-04 0.0000000000000000e+00  -9.4230553383978802e-05 -7.8324517282886213e-04 0.0000000000000000e+00  -9.4425046816058115e-05 -7.9271862276308826e-04 0.0000000000000000e+00  -9.4614186033802443e-05 -8.0221067563435080e-04 0.0000000000000000e+00  -9.4798045395766027e-05 -8.1172079977897833e-04 0.0000000000000000e+00  -9.4976699260504419e-05 -8.2124847096915669e-04 0.0000000000000000e+00  -9.5150221986572362e-05 -8.3079317241292554e-04 0.0000000000000000e+00  -9.5318687932524122e-05 -8.4035439475418092e-04 0.0000000000000000e+00  -9.5482171456913803e-05 -8.4993163607267365e-04 0.0000000000000000e+00  -9.5640746918295130e-05 -8.5952440188401074e-04 0.0000000000000000e+00  -9.5794488675221854e-05 -8.6913220513965277e-04 0.0000000000000000e+00  -9.5943471086247430e-05 -8.7875456622691663e-04 0.0000000000000000e+00  -9.6087768509924958e-05 -8.8839101296897397e-04 0.0000000000000000e+00  -9.6227455304807242e-05 -8.9804108062484895e-04 0.0000000000000000e+00  -9.6362605829447491e-05 -9.0770431188942375e-04 0.0000000000000000e+00  -9.6493294442398373e-05 -9.1738025689343348e-04 0.0000000000000000e+00  -9.6619595502212365e-05 -9.2706847320346781e-04 0.0000000000000000e+00  -9.6741583367441635e-05 -9.3676852582196836e-04 0.0000000000000000e+00  -9.6859332396639349e-05 -9.4647998718723318e-04 0.0000000000000000e+00  -9.6972916948359140e-05 -9.5620243717341093e-04 0.0000000000000000e+00  -9.7082411381155842e-05 -9.6593546309050346e-04 0.0000000000000000e+00  -9.7187890053586676e-05 -9.7567865968436530e-04 0.0000000000000000e+00  -9.7289427324211941e-05 -9.8543162913670274e-04 0.0000000000000000e+00  -9.7387097551595472e-05 -9.9519398106507413e-04 0.0000000000000000e+00  -9.7480975094306753e-05 -1.0049653325228903e-03 0.0000000000000000e+00  -9.7571134310922916e-05 -1.0147453079994144e-03 0.0000000000000000e+00  -9.7657649560030658e-05 -1.0245335394197612e-03 0.0000000000000000e+00  -9.7740595200229133e-05 -1.0343296661449004e-03 0.0000000000000000e+00  -9.7820045590133430e-05 -1.0441333349716570e-03 0.0000000000000000e+00  -9.7896075088377328e-05 -1.0539442001327192e-03 0.0000000000000000e+00  -9.7968758053617675e-05 -1.0637619232966343e-03 0.0000000000000000e+00  -9.8038168844538813e-05 -1.0735861735678221e-03 0.0000000000000000e+00  -9.8104381819856041e-05 -1.0834166274865809e-03 0.0000000000000000e+00  -9.8167471338319324e-05 -1.0932529690290964e-03 0.0000000000000000e+00  -9.8227511758714012e-05 -1.1030948896074600e-03 0.0000000000000000e+00  -9.8284577439859528e-05 -1.1129420880696813e-03 0.0000000000000000e+00  -9.8338742740604419e-05 -1.1227942706997095e-03 0.0000000000000000e+00  -9.8390082019812828e-05 -1.1326511512174584e-03 0.0000000000000000e+00  -9.8438669636341015e-05 -1.1425124507788253e-03 0.0000000000000000e+00  -9.8484579948998372e-05 -1.1523778979757166e-03 0.0000000000000000e+00  -9.8527887316488880e-05 -1.1622472288360527e-03 0.0000000000000000e+00  -9.8568666097324686e-05 -1.1721201868237754e-03 0.0000000000000000e+00  -9.8606990649705617e-05 -1.1819965228387996e-03 0.0000000000000000e+00  -9.8642935331356619e-05 -1.1918759952169325e-03 0.0000000000000000e+00  -9.8676574499313046e-05 -1.2017583697296978e-03 0.0000000000000000e+00  -9.8707982509653878e-05 -1.2116434195840224e-03 0.0000000000000000e+00  -9.8737233717188981e-05 -1.2215309254217340e-03 0.0000000000000000e+00  -9.8764402475114453e-05 -1.2314206753187562e-03 0.0000000000000000e+00  -9.8789563134692447e-05 -1.2413124647838850e-03 0.0000000000000000e+00  -9.8812790045042721e-05 -1.2512060967570012e-03 0.0000000000000000e+00  -9.8834157553215099e-05 -1.2611013816064625e-03 0.0000000000000000e+00  -9.8853740004833598e-05 -1.2709981371254770e-03 0.0000000000000000e+00  -9.8871611745766547e-05 -1.2808961885271174e-03 0.0000000000000000e+00  -9.8887847125557504e-05 -1.2907953684376827e-03 0.0000000000000000e+00  -9.8902520503730811e-05 -1.3006955168881394e-03 0.0000000000000000e+00  -9.8915706260646738e-05 -1.3105964813034893e-03 0.0000000000000000e+00  -9.8927478815363210e-05 -1.3204981164902443e-03 0.0000000000000000e+00  -9.8937912654040603e-05 -1.3304002846228011e-03 0.0000000000000000e+00  -9.8947082373872914e-05 -1.3403028552306047e-03 0.0000000000000000e+00  -9.8955062749432349e-05 -1.3502057051898793e-03 0.0000000000000000e+00  -9.8961928830721893e-05 -1.3601087187267717e-03 0.0000000000000000e+00  -9.8967756085147226e-05 -1.3700117874436740e-03 0.0000000000000000e+00  -9.8972620598937976e-05 -1.3799148103880951e-03 0.0000000000000000e+00  -9.8976599356925807e-05 -1.3898176941952260e-03 0.0000000000000000e+00  -9.8979770622142083e-05 -1.3997203533530030e-03 0.0000000000000000e+00  -9.8982214436809139e-05 -1.4096227106650790e-03 0.0000000000000000e+00  -9.8984013260421772e-05 -1.4195246980265425e-03 0.0000000000000000e+00  -9.8985252742037153e-05 -1.4294262576853285e-03 0.0000000000000000e+00  -9.8986022579230034e-05 -1.4393273442466620e-03 0.0000000000000000e+00  -9.8986417318781071e-05 -1.4492279277964729e-03 0.0000000000000000e+00  -9.8986536750571863e-05 -1.4591279986715337e-03 0.0000000000000000e+00  -9.8986485125505974e-05 -1.4690275745386414e-03 0.0000000000000000e+00  -9.8986367538106819e-05 -1.4789267102614668e-03 0.0000000000000000e+00  -9.8986279607361519e-05 -1.4888255086894795e-03 0.0000000000000000e+00  -9.8986276206580696e-05 -1.4987241091949815e-03 0.0000000000000000e+00  0.0000000000000000e+00 0.0000000000000000e+00 0.0000000000000000e+00  -1.2777544266298147e-06 -5.8983125918755083e-07 0.0000000000000000e+00  -2.6356622874837360e-06 -1.2586579229049509e-06 0.0000000000000000e+00  -3.9554506087019227e-06 -1.9391570268389499e-06 0.0000000000000000e+00  -5.2450063204416868e-06 -2.6840853173763171e-06 0.0000000000000000e+00  -6.5137611926803073e-06 -3.5244718731916228e-06 0.0000000000000000e+00  -7.7671850334595511e-06 -4.4774882149667015e-06 0.0000000000000000e+00  -9.0080249430201386e-06 -5.5527327165278674e-06 0.0000000000000000e+00  -1.0237482565026301e-05 -6.7554742485022936e-06 0.0000000000000000e+00  -1.1455948854691532e-05 -8.0884077988917970e-06 0.0000000000000000e+00  -1.2663422530826180e-05 -9.5526582429839871e-06 0.0000000000000000e+00  -1.3859737399422157e-05 -1.1148377917817675e-05 0.0000000000000000e+00  -1.5044680307545063e-05 -1.2875112796763328e-05 0.0000000000000000e+00  -1.6218048312818830e-05 -1.4732031334421064e-05 0.0000000000000000e+00  -1.7379672953293819e-05 -1.6718069205640528e-05 0.0000000000000000e+00  -1.8529427347229932e-05 -1.8832021329251728e-05 0.0000000000000000e+00  -1.9667224871802524e-05 -2.1072600333118799e-05 0.0000000000000000e+00  -2.0793014195567179e-05 -2.3438473467426193e-05 0.0000000000000000e+00  -2.1906773188806732e-05 -2.5928285638246081e-05 0.0000000000000000e+00  -2.3008502971218356e-05 -2.8540673524191536e-05 0.0000000000000000e+00  -2.4098222656715844e-05 -3.1274274005991520e-05 0.0000000000000000e+00  -2.5175964979182422e-05 -3.4127729012468340e-05 0.0000000000000000e+00  -2.6241772791636749e-05 -3.7099688147422039e-05 0.0000000000000000e+00  -2.7295696343670597e-05 -4.0188809975323340e-05 0.0000000000000000e+00  -2.8337791211164962e-05 -4.3393762523679272e-05 0.0000000000000000e+00  -2.9368116750941526e-05 -4.6713223350563465e-05 0.0000000000000000e+00  -3.0386734965581657e-05 -5.0145879390069209e-05 0.0000000000000000e+00  -3.1393709681466285e-05 -5.3690426701560793e-05 0.0000000000000000e+00  -3.2389105961555920e-05 -5.7345570193920970e-05 0.0000000000000000e+00  -3.3372989691300238e-05 -6.1110023362325830e-05 0.0000000000000000e+00  -3.4345427290443910e-05 -6.4982508054953328e-05 0.0000000000000000e+00  -3.5306485515208092e-05 -6.8961754275477722e-05 0.0000000000000000e+00  -3.6256231324564694e-05 -7.3046500020962710e-05 0.0000000000000000e+00  -3.7194731791429994e-05 -7.7235491151737894e-05 0.0000000000000000e+00  -3.8122054044965435e-05 -8.1527481288666832e-05 0.0000000000000000e+00  -3.9038265234151849e-05 -8.5921231733074074e-05 0.0000000000000000e+00  -3.9943432505711597e-05 -9.0415511404960962e-05 0.0000000000000000e+00  -4.0837622991553191e-05 -9.5009096795725011e-05 0.0000000000000000e+00  -4.1720903802412387e-05 -9.9700771932230049e-05 0.0000000000000000e+00  -4.2593342025422060e-05 -1.0448932834967247e-04 0.0000000000000000e+00  -4.3455004724084103e-05 -1.0937356507121085e-04 0.0000000000000000e+00  -4.4305958939629434e-05 -1.1435228859276623e-04 0.0000000000000000e+00  -4.5146271693104820e-05 -1.1942431287175491e-04 0.0000000000000000e+00  -4.5976009987763886e-05 -1.2458845931880166e-04 0.0000000000000000e+00  -4.6795240811501153e-05 -1.2984355679170059e-04 0.0000000000000000e+00  -4.7604031139175284e-05 -1.3518844159106526e-04 0.0000000000000000e+00  -4.8402447934737860e-05 -1.4062195745724370e-04 0.0000000000000000e+00  -4.9190558153128068e-05 -1.4614295556817207e-04 0.0000000000000000e+00  -4.9968428741924836e-05 -1.5175029453792422e-04 0.0000000000000000e+00  -5.0736126642761684e-05 -1.5744284041576916e-04 0.0000000000000000e+00  -5.1493718792521838e-05 -1.6321946668559556e-04 0.0000000000000000e+00  -5.2241272124335527e-05 -1.6907905426559894e-04 0.0000000000000000e+00  -5.2978853568401500e-05 -1.7502049150814981e-04 0.0000000000000000e+00  -5.3706530052658182e-05 -1.8104267419978836e-04 0.0000000000000000e+00  -5.4424368503324656e-05 -1.8714450556129691e-04 0.0000000000000000e+00  -5.5132435845333437e-05 -1.9332489624782217e-04 0.0000000000000000e+00  -5.5830799002671676e-05 -1.9958276434902384e-04 0.0000000000000000e+00  -5.6519524898648030e-05 -2.0591703538923198e-04 0.0000000000000000e+00  -5.7198680456098474e-05 -2.1232664232760553e-04 0.0000000000000000e+00  -5.7868332597542486e-05 -2.1881052555828277e-04 0.0000000000000000e+00  -5.8528548245300062e-05 -2.2536763291051948e-04 0.0000000000000000e+00  -5.9179394321577558e-05 -2.3199691964881423e-04 0.0000000000000000e+00  -5.9820937748529334e-05 -2.3869734847301689e-04 0.0000000000000000e+00  -6.0453245448300220e-05 -2.4546788951842487e-04 0.0000000000000000e+00  -6.1076384343054259e-05 -2.5230752035586404e-04 0.0000000000000000e+00  -6.1690421354992537e-05 -2.5921522599175588e-04 0.0000000000000000e+00  -6.2295423406363436e-05 -2.6618999886817611e-04 0.0000000000000000e+00  -6.2891457419466770e-05 -2.7323083886289848e-04 0.0000000000000000e+00  -6.3478590316654558e-05 -2.8033675328943431e-04 0.0000000000000000e+00  -6.4056889020328963e-05 -2.8750675689706275e-04 0.0000000000000000e+00  -6.4626420452938729e-05 -2.9473987187085413e-04 0.0000000000000000e+00  -6.5187251536974895e-05 -3.0203512783168944e-04 0.0000000000000000e+00  -6.5739449194965460e-05 -3.0939156183627141e-04 0.0000000000000000e+00  -6.6283080349470989e-05 -3.1680821837713996e-04 0.0000000000000000e+00  -6.6818211923079437e-05 -3.2428414938267798e-04 0.0000000000000000e+00  -6.7344910838402339e-05 -3