<?xml version="1.0"?>
<VTKFile type="UnstructuredGrid"  version="0.1"  >
<UnstructuredGrid>
<Piece  NumberOfPoints="4221" NumberOfCells="8000">
<Points>
<DataArray  type="Float64"  NumberOfComponents="3"  format="ascii">0 0 0  0.05 0 0  0.1 0 0  0.15 0 0  0.2 0 0  0.25 0 0  0.3 0 0  0.35 0 0  0.4 0 0  0.45 0 0  0.5 0 0  0.55 0 0  0.6 0 0  0.65 0 0  0.7 0 0  0.75 0 0  0.8 0 0  0.85 0 0  0.9 0 0  0.95 0 0  1 0 0  1.05 0 0  1.1 0 0  1.15 0 0  1.2 0 0  1.25 0 0  1.3 0 0  1.35 0 0  1.4 0 0  1.45 0 0  1.5 0 0  1.55 0 0  1.6 0 0  1.65 0 0  1.7 0 0  1.75 0 0  1.8 0 0  1.85 0 0  1.9 0 0  1.95 0 0  2 0 0  2.05 0 0  2.1 0 0  2.15 0 0  2.2 0 0  2.25 0 0  2.3 0 0  2.35 0 0  2.4 0 0  2.45 0 0  2.5 0 0  2.55 0 0  2.6 0 0  2.65 0 0  2.7 0 0  2.75 0 0  2.8 0 0  2.85 0 0  2.9 0 0  2.95 0 0  3 0 0  3.05 0 0  3.1 0 0  3.15 0 0  3.2 0 0  3.25 0 0  3.3 0 0  3.35 0 0  3.4 0 0  3.45 0 0  3.5 0 0  3.55 0 0  3.6 0 0  3.65 0 0  3.7 0 0  3.75 0 0  3.8 0 0  3.85 0 0  3.9 0 0  3.95 0 0  4 0 0  4.05 0 0  4.1 0 0  4.15 0 0  4.2 0 0  4.25 0 0  4.3 0 0  4.35 0 0  4.4 0 0  4.45 0 0  4.5 0 0  4.55 0 0  4.6 0 0  4.65 0 0  4.7 0 0  4.75 0 0  4.8 0 0  4.85 0 0  4.9 0 0  4.95 0 0  5 0 0  5.05 0 0  5.1 0 0  5.15 0 0  5.2 0 0  5.25 0 0  5.3 0 0  5.35 0 0  5.4 0 0  5.45 0 0  5.5 0 0  5.55 0 0  5.6 0 0  5.65 0 0  5.7 0 0  5.75 0 0  5.8 0 0  5.85 0 0  5.9 0 0  5.95 0 0  6 0 0  6.05 0 0  6.1 0 0  6.15 0 0  6.2 0 0  6.25 0 0  6.3 0 0  6.35 0 0  6.4 0 0  6.45 0 0  6.5 0 0  6.55 0 0  6.6 0 0  6.65 0 0  6.7 0 0  6.75 0 0  6.8 0 0  6.85 0 0  6.9 0 0  6.95 0 0  7 0 0  7.05 0 0  7.1 0 0  7.15 0 0  7.2 0 0  7.25 0 0  7.3 0 0  7.35 0 0  7.4 0 0  7.45 0 0  7.5 0 0  7.55 0 0  7.6 0 0  7.65 0 0  7.7 0 0  7.75 0 0  7.8 0 0  7.85 0 0  7.9 0 0  7.95 0 0  8 0 0  8.050000000000001 0 0  8.1 0 0  8.15 0 0  8.199999999999999 0 0  8.25 0 0  8.300000000000001 0 0  8.35 0 0  8.4 0 0  8.449999999999999 0 0  8.5 0 0  8.550000000000001 0 0  8.6 0 0  8.65 0 0  8.699999999999999 0 0  8.75 0 0  8.800000000000001 0 0  8.85 0 0  8.9 0 0  8.949999999999999 0 0  9 0 0  9.050000000000001 0 0  9.1 0 0  9.15 0 0  9.199999999999999 0 0  9.25 0 0  9.300000000000001 0 0  9.35 0 0  9.4 0 0  9.449999999999999 0 0  9.5 0 0  9.550000000000001 0 0  9.6 0 0  9.65 0 0  9.699999999999999 0 0  9.75 0 0  9.800000000000001 0 0  9.85 0 0  9.9 0 0  9.949999999999999 0 0  10 0 0  0 0.05 0  0.05 0.05 0  0.1 0.05 0  0.15 0.05 0  0.2 0.05 0  0.25 0.05 0  0.3 0.05 0  0.35 0.05 0  0.4 0.05 0  0.45 0.05 0  0.5 0.05 0  0.55 0.05 0  0.6 0.05 0  0.65 0.05 0  0.7 0.05 0  0.75 0.05 0  0.8 0.05 0  0.85 0.05 0  0.9 0.05 0  0.95 0.05 0  1 0.05 0  1.05 0.05 0  1.1 0.05 0  1.15 0.05 0  1.2 0.05 0  1.25 0.05 0  1.3 0.05 0  1.35 0.05 0  1.4 0.05 0  1.45 0.05 0  1.5 0.05 0  1.55 0.05 0  1.6 0.05 0  1.65 0.05 0  1.7 0.05 0  1.75 0.05 0  1.8 0.05 0  1.85 0.05 0  1.9 0.05 0  1.95 0.05 0  2 0.05 0  2.05 0.05 0  2.1 0.05 0  2.15 0.05 0  2.2 0.05 0  2.25 0.05 0  2.3 0.05 0  2.35 0.05 0  2.4 0.05 0  2.45 0.05 0  2.5 0.05 0  2.55 0.05 0  2.6 0.05 0  2.65 0.05 0  2.7 0.05 0  2.75 0.05 0  2.8 0.05 0  2.85 0.05 0  2.9 0.05 0  2.95 0.05 0  3 0.05 0  3.05 0.05 0  3.1 0.05 0  3.15 0.05 0  3.2 0.05 0  3.25 0.05 0  3.3 0.05 0  3.35 0.05 0  3.4 0.05 0  3.45 0.05 0  3.5 0.05 0  3.55 0.05 0  3.6 0.05 0  3.65 0.05 0  3.7 0.05 0  3.75 0.05 0  3.8 0.05 0  3.85 0.05 0  3.9 0.05 0  3.95 0.05 0  4 0.05 0  4.05 0.05 0  4.1 0.05 0  4.15 0.05 0  4.2 0.05 0  4.25 0.05 0  4.3 0.05 0  4.35 0.05 0  4.4 0.05 0  4.45 0.05 0  4.5 0.05 0  4.55 0.05 0  4.6 0.05 0  4.65 0.05 0  4.7 0.05 0  4.75 0.05 0  4.8 0.05 0  4.85 0.05 0  4.9 0.05 0  4.95 0.05 0  5 0.05 0  5.05 0.05 0  5.1 0.05 0  5.15 0.05 0  5.2 0.05 0  5.25 0.05 0  5.3 0.05 0  5.35 0.05 0  5.4 0.05 0  5.45 0.05 0  5.5 0.05 0  5.55 0.05 0  5.6 0.05 0  5.65 0.05 0  5.7 0.05 0  5.75 0.05 0  5.8 0.05 0  5.85 0.05 0  5.9 0.05 0  5.95 0.05 0  6 0.05 0  6.05 0.05 0  6.1 0.05 0  6.15 0.05 0  6.2 0.05 0  6.25 0.05 0  6.3 0.05 0  6.35 0.05 0  6.4 0.05 0  6.45 0.05 0  6.5 0.05 0  6.55 0.05 0  6.6 0.05 0  6.65 0.05 0  6.7 0.05 0  6.75 0.05 0  6.8 0.05 0  6.85 0.05 0  6.9 0.05 0  6.95 0.05 0  7 0.05 0  7.05 0.05 0  7.1 0.05 0  7.15 0.05 0  7.2 0.05 0  7.25 0.05 0  7.3 0.05 0  7.35 0.05 0  7.4 0.05 0  7.45 0.05 0  7.5 0.05 0  7.55 0.05 0  7.6 0.05 0  7.65 0.05 0  7.7 0.05 0  7.75 0.05 0  7.8 0.05 0  7.85 0.05 0  7.9 0.05 0  7.95 0.05 0  8 0.05 0  8.050000000000001 0.05 0  8.1 0.05 0  8.15 0.05 0  8.199999999999999 0.05 0  8.25 0.05 0  8.300000000000001 0.05 0  8.35 0.05 0  8.4 0.05 0  8.449999999999999 0.05 0  8.5 0.05 0  8.550000000000001 0.05 0  8.6 0.05 0  8.65 0.05 0  8.699999999999999 0.05 0  8.75 0.05 0  8.800000000000001 0.05 0  8.85 0.05 0  8.9 0.05 0  8.949999999999999 0.05 0  9 0.05 0  9.050000000000001 0.05 0  9.1 0.05 0  9.15 0.05 0  9.199999999999999 0.05 0  9.25 0.05 0  9.300000000000001 0.05 0  9.35 0.05 0  9.4 0.05 0  9.449999999999999 0.05 0  9.5 0.05 0  9.550000000000001 0.05 0  9.6 0.05 0  9.65 0.05 0  9.699999999999999 0.05 0  9.75 0.05 0  9.800000000000001 0.05 0  9.85 0.05 0  9.9 0.05 0  9.949999999999999 0.05 0  10 0.05 0  0 0.1 0  0.05 0.1 0  0.1 0.1 0  0.15 0.1 0  0.2 0.1 0  0.25 0.1 0  0.3 0.1 0  0.35 0.1 0  0.4 0.1 0  0.45 0.1 0  0.5 0.1 0  0.55 0.1 0  0.6 0.1 0  0.65 0.1 0  0.7 0.1 0  0.75 0.1 0  0.8 0.1 0  0.85 0.1 0  0.9 0.1 0  0.95 0.1 0  1 0.1 0  1.05 0.1 0  1.1 0.1 0  1.15 0.1 0  1.2 0.1 0  1.25 0.1 0  1.3 0.1 0  1.35 0.1 0  1.4 0.1 0  1.45 0.1 0  1.5 0.1 0  1.55 0.1 0  1.6 0.1 0  1.65 0.1 0  1.7 0.1 0  1.75 0.1 0  1.8 0.1 0  1.85 0.1 0  1.9 0.1 0  1.95 0.1 0  2 0.1 0  2.05 0.1 0  2.1 0.1 0  2.15 0.1 0  2.2 0.1 0  2.25 0.1 0  2.3 0.1 0  2.35 0.1 0  2.4 0.1 0  2.45 0.1 0  2.5 0.1 0  2.55 0.1 0  2.6 0.1 0  2.65 0.1 0  2.7 0.1 0  2.75 0.1 0  2.8 0.1 0  2.85 0.1 0  2.9 0.1 0  2.95 0.1 0  3 0.1 0  3.05 0.1 0  3.1 0.1 0  3.15 0.1 0  3.2 0.1 0  3.25 0.1 0  3.3 0.1 0  3.35 0.1 0  3.4 0.1 0  3.45 0.1 0  3.5 0.1 0  3.55 0.1 0  3.6 0.1 0  3.65 0.1 0  3.7 0.1 0  3.75 0.1 0  3.8 0.1 0  3.85 0.1 0  3.9 0.1 0  3.95 0.1 0  4 0.1 0  4.05 0.1 0  4.1 0.1 0  4.15 0.1 0  4.2 0.1 0  4.25 0.1 0  4.3 0.1 0  4.35 0.1 0  4.4 0.1 0  4.45 0.1 0  4.5 0.1 0  4.55 0.1 0  4.6 0.1 0  4.65 0.1 0  4.7 0.1 0  4.75 0.1 0  4.8 0.1 0  4.85 0.1 0  4.9 0.1 0  4.95 0.1 0  5 0.1 0  5.05 0.1 0  5.1 0.1 0  5.15 0.1 0  5.2 0.1 0  5.25 0.1 0  5.3 0.1 0  5.35 0.1 0  5.4 0.1 0  5.45 0.1 0  5.5 0.1 0  5.55 0.1 0  5.6 0.1 0  5.65 0.1 0  5.7 0.1 0  5.75 0.1 0  5.8 0.1 0  5.85 0.1 0  5.9 0.1 0  5.95 0.1 0  6 0.1 0  6.05 0.1 0  6.1 0.1 0  6.15 0.1 0  6.2 0.1 0  6.25 0.1 0  6.3 0.1 0  6.35 0.1 0  6.4 0.1 0  6.45 0.1 0  6.5 0.1 0  6.55 0.1 0  6.6 0.1 0  6.65 0.1 0  6.7 0.1 0  6.75 0.1 0  6.8 0.1 0  6.85 0.1 0  6.9 0.1 0  6.95 0.1 0  7 0.1 0  7.05 0.1 0  7.1 0.1 0  7.15 0.1 0  7.2 0.1 0  7.25 0.1 0  7.3 0.1 0  7.35 0.1 0  7.4 0.1 0  7.45 0.1 0  7.5 0.1 0  7.55 0.1 0  7.6 0.1 0  7.65 0.1 0  7.7 0.1 0  7.75 0.1 0  7.8 0.1 0  7.85 0.1 0  7.9 0.1 0  7.95 0.1 0  8 0.1 0  8.050000000000001 0.1 0  8.1 0.1 0  8.15 0.1 0  8.199999999999999 0.1 0  8.25 0.1 0  8.300000000000001 0.1 0  8.35 0.1 0  8.4 0.1 0  8.449999999999999 0.1 0  8.5 0.1 0  8.550000000000001 0.1 0  8.6 0.1 0  8.65 0.1 0  8.699999999999999 0.1 0  8.75 0.1 0  8.800000000000001 0.1 0  8.85 0.1 0  8.9 0.1 0  8.949999999999999 0.1 0  9 0.1 0  9.050000000000001 0.1 0  9.1 0.1 0  9.15 0.1 0  9.199999999999999 0.1 0  9.25 0.1 0  9.300000000000001 0.1 0  9.35 0.1 0  9.4 0.1 0  9.449999999999999 0.1 0  9.5 0.1 0  9.550000000000001 0.1 0  9.6 0.1 0  9.65 0.1 0  9.699999999999999 0.1 0  9.75 0.1 0  9.800000000000001 0.1 0  9.85 0.1 0  9.9 0.1 0  9.949999999999999 0.1 0  10 0.1 0  0 0.15 0  0.05 0.15 0  0.1 0.15 0  0.15 0.15 0  0.2 0.15 0  0.25 0.15 0  0.3 0.15 0  0.35 0.15 0  0.4 0.15 0  0.45 0.15 0  0.5 0.15 0  0.55 0.15 0  0.6 0.15 0  0.65 0.15 0  0.7 0.15 0  0.75 0.15 0  0.8 0.15 0  0.85 0.15 0  0.9 0.15 0  0.95 0.15 0  1 0.15 0  1.05 0.15 0  1.1 0.15 0  1.15 0.15 0  1.2 0.15 0  1.25 0.15 0  1.3 0.15 0  1.35 0.15 0  1.4 0.15 0  1.45 0.15 0  1.5 0.15 0  1.55 0.15 0  1.6 0.15 0  1.65 0.15 0  1.7 0.15 0  1.75 0.15 0  1.8 0.15 0  1.85 0.15 0  1.9 0.15 0  1.95 0.15 0  2 0.15 0  2.05 0.15 0  2.1 0.15 0  2.15 0.15 0  2.2 0.15 0  2.25 0.15 0  2.3 0.15 0  2.35 0.15 0  2.4 0.15 0  2.45 0.15 0  2.5 0.15 0  2.55 0.15 0  2.6 0.15 0  2.65 0.15 0  2.7 0.15 0  2.75 0.15 0  2.8 0.15 0  2.85 0.15 0  2.9 0.15 0  2.95 0.15 0  3 0.15 0  3.05 0.15 0  3.1 0.15 0  3.15 0.15 0  3.2 0.15 0  3.25 0.15 0  3.3 0.15 0  3.35 0.15 0  3.4 0.15 0  3.45 0.15 0  3.5 0.15 0  3.55 0.15 0  3.6 0.15 0  3.65 0.15 0  3.7 0.15 0  3.75 0.15 0  3.8 0.15 0  3.85 0.15 0  3.9 0.15 0  3.95 0.15 0  4 0.15 0  4.05 0.15 0  4.1 0.15 0  4.15 0.15 0  4.2 0.15 0  4.25 0.15 0  4.3 0.15 0  4.35 0.15 0  4.4 0.15 0  4.45 0.15 0  4.5 0.15 0  4.55 0.15 0  4.6 0.15 0  4.65 0.15 0  4.7 0.15 0  4.75 0.15 0  4.8 0.15 0  4.85 0.15 0  4.9 0.15 0  4.95 0.15 0  5 0.15 0  5.05 0.15 0  5.1 0.15 0  5.15 0.15 0  5.2 0.15 0  5.25 0.15 0  5.3 0.15 0  5.35 0.15 0  5.4 0.15 0  5.45 0.15 0  5.5 0.15 0  5.55 0.15 0  5.6 0.15 0  5.65 0.15 0  5.7 0.15 0  5.75 0.15 0  5.8 0.15 0  5.85 0.15 0  5.9 0.15 0  5.95 0.15 0  6 0.15 0  6.05 0.15 0  6.1 0.15 0  6.15 0.15 0  6.2 0.15 0  6.25 0.15 0  6.3 0.15 0  6.35 0.15 0  6.4 0.15 0  6.45 0.15 0  6.5 0.15 0  6.55 0.15 0  6.6 0.15 0  6.65 0.15 0  6.7 0.15 0  6.75 0.15 0  6.8 0.15 0  6.85 0.15 0  6.9 0.15 0  6.95 0.15 0  7 0.15 0  7.05 0.15 0  7.1 0.15 0  7.15 0.15 0  7.2 0.15 0  7.25 0.15 0  7.3 0.15 0  7.35 0.15 0  7.4 0.15 0  7.45 0.15 0  7.5 0.15 0  7.55 0.15 0  7.6 0.15 0  7.65 0.15 0  7.7 0.15 0  7.75 0.15 0  7.8 0.15 0  7.85 0.15 0  7.9 0.15 0  7.95 0.15 0  8 0.15 0  8.050000000000001 0.15 0  8.1 0.15 0  8.15 0.15 0  8.199999999999999 0.15 0  8.25 0.15 0  8.300000000000001 0.15 0  8.35 0.15 0  8.4 0.15 0  8.449999999999999 0.15 0  8.5 0.15 0  8.550000000000001 0.15 0  8.6 0.15 0  8.65 0.15 0  8.699999999999999 0.15 0  8.75 0.15 0  8.800000000000001 0.15 0  8.85 0.15 0  8.9 0.15 0  8.949999999999999 0.15 0  9 0.15 0  9.050000000000001 0.15 0  9.1 0.15 0  9.15 0.15 0  9.199999999999999 0.15 0  9.25 0.15 0  9.300000000000001 0.15 
[...]
<PointData  Vectors="f_27"> 
<DataArray  type="Float64"  Name="f_27"  NumberOfComponents="3" format="ascii">0.0000000000000000e+00 0.0000000000000000e+00 0.0000000000000000e+00  -7.6706460886645507e-07 -5.6505087613264281e-07 0.0000000000000000e+00  -1.5341292177329104e-06 -1.1301017522652856e-06 0.0000000000000000e+00  -2.3011938265993668e-06 -1.6951526283979295e-06 0.0000000000000000e+00  -3.0682584354658220e-06 -2.2602035045305725e-06 0.0000000000000000e+00  -3.8353230443322771e-06 -2.8252543806632153e-06 0.0000000000000000e+00  -4.6023876531987327e-06 -3.3903052567958582e-06 0.0000000000000000e+00  -5.3694522620651875e-06 -3.9553561329285014e-06 0.0000000000000000e+00  -6.1365168709316448e-06 -4.5204070090611451e-06 0.0000000000000000e+00  -6.9035814797980987e-06 -5.0854578851937879e-06 0.0000000000000000e+00  -7.6706460886645543e-06 -5.6505087613264307e-06 0.0000000000000000e+00  -8.3558093615186748e-06 -6.8688696627527199e-06 0.0000000000000000e+00  -9.0409726343727936e-06 -8.0872305641790049e-06 0.0000000000000000e+00  -9.7261359072269140e-06 -9.3055914656052950e-06 0.0000000000000000e+00  -1.0411299180081035e-05 -1.0523952367031582e-05 0.0000000000000000e+00  -1.1096462452935155e-05 -1.1742313268457870e-05 0.0000000000000000e+00  -1.1781625725789274e-05 -1.2960674169884158e-05 0.0000000000000000e+00  -1.2466788998643394e-05 -1.4179035071310445e-05 0.0000000000000000e+00  -1.3151952271497516e-05 -1.5397395972736735e-05 0.0000000000000000e+00  -1.3837115544351634e-05 -1.6615756874163020e-05 0.0000000000000000e+00  -1.4522278817205754e-05 -1.7834117775589309e-05 0.0000000000000000e+00  -1.5139627338765422e-05 -1.9693091544109928e-05 0.0000000000000000e+00  -1.5756975860325086e-05 -2.1552065312630544e-05 0.0000000000000000e+00  -1.6374324381884752e-05 -2.3411039081151150e-05 0.0000000000000000e+00  -1.6991672903444419e-05 -2.5270012849671770e-05 0.0000000000000000e+00  -1.7609021425004085e-05 -2.7128986618192386e-05 0.0000000000000000e+00  -1.8226369946563751e-05 -2.8987960386713002e-05 0.0000000000000000e+00  -1.8843718468123417e-05 -3.0846934155233618e-05 0.0000000000000000e+00  -1.9461066989683083e-05 -3.2705907923754231e-05 0.0000000000000000e+00  -2.0078415511242749e-05 -3.4564881692274844e-05 0.0000000000000000e+00  -2.0695764032802416e-05 -3.6423855460795463e-05 0.0000000000000000e+00  -2.1246635759184843e-05 -3.8858652346386910e-05 0.0000000000000000e+00  -2.1797507485567263e-05 -4.1293449231978357e-05 0.0000000000000000e+00  -2.2348379211949687e-05 -4.3728246117569784e-05 0.0000000000000000e+00  -2.2899250938332111e-05 -4.6163043003161231e-05 0.0000000000000000e+00  -2.3450122664714534e-05 -4.8597839888752672e-05 0.0000000000000000e+00  -2.4000994391096958e-05 -5.1032636774344119e-05 0.0000000000000000e+00  -2.4551866117479385e-05 -5.3467433659935566e-05 0.0000000000000000e+00  -2.5102737843861809e-05 -5.5902230545526999e-05 0.0000000000000000e+00  -2.5653609570244229e-05 -5.8337027431118440e-05 0.0000000000000000e+00  -2.6204481296626656e-05 -6.0771824316709887e-05 0.0000000000000000e+00  -2.6691485340125249e-05 -6.3716608201055665e-05 0.0000000000000000e+00  -2.7178489383623845e-05 -6.6661392085401477e-05 0.0000000000000000e+00  -2.7665493427122437e-05 -6.9606175969747262e-05 0.0000000000000000e+00  -2.8152497470621030e-05 -7.2550959854093060e-05 0.0000000000000000e+00  -2.8639501514119622e-05 -7.5495743738438845e-05 0.0000000000000000e+00  -2.9126505557618215e-05 -7.8440527622784616e-05 0.0000000000000000e+00  -2.9613509601116807e-05 -8.1385311507130428e-05 0.0000000000000000e+00  -3.0100513644615400e-05 -8.4330095391476213e-05 0.0000000000000000e+00  -3.0587517688113992e-05 -8.7274879275822011e-05 0.0000000000000000e+00  -3.1074521731612585e-05 -9.0219663160167796e-05 0.0000000000000000e+00  -3.1501168164697325e-05 -9.3612085262102091e-05 0.0000000000000000e+00  -3.1927814597782072e-05 -9.7004507364036426e-05 0.0000000000000000e+00  -3.2354461030866819e-05 -1.0039692946597071e-04 0.0000000000000000e+00  -3.2781107463951566e-05 -1.0378935156790504e-04 0.0000000000000000e+00  -3.3207753897036306e-05 -1.0718177366983935e-04 0.0000000000000000e+00  -3.3634400330121046e-05 -1.1057419577177365e-04 0.0000000000000000e+00  -3.4061046763205793e-05 -1.1396661787370797e-04 0.0000000000000000e+00  -3.4487693196290540e-05 -1.1735903997564226e-04 0.0000000000000000e+00  -3.4914339629375287e-05 -1.2075146207757660e-04 0.0000000000000000e+00  -3.5340986062460028e-05 -1.2414388417951089e-04 0.0000000000000000e+00  -3.5711128399662773e-05 -1.2792556459286316e-04 0.0000000000000000e+00  -3.6081270736865512e-05 -1.3170724500621543e-04 0.0000000000000000e+00  -3.6451413074068251e-05 -1.3548892541956771e-04 0.0000000000000000e+00  -3.6821555411270996e-05 -1.3927060583292000e-04 0.0000000000000000e+00  -3.7191697748473735e-05 -1.4305228624627225e-04 0.0000000000000000e+00  -3.7561840085676481e-05 -1.4683396665962452e-04 0.0000000000000000e+00  -3.7931982422879220e-05 -1.5061564707297679e-04 0.0000000000000000e+00  -3.8302124760081965e-05 -1.5439732748632906e-04 0.0000000000000000e+00  -3.8672267097284704e-05 -1.5817900789968136e-04 0.0000000000000000e+00  -3.9042409434487450e-05 -1.6196068831303361e-04 0.0000000000000000e+00  -3.9360017799290419e-05 -1.6607726846788604e-04 0.0000000000000000e+00  -3.9677626164093401e-05 -1.7019384862273850e-04 0.0000000000000000e+00  -3.9995234528896370e-05 -1.7431042877759094e-04 0.0000000000000000e+00  -4.0312842893699353e-05 -1.7842700893244343e-04 0.0000000000000000e+00  -4.0630451258502322e-05 -1.8254358908729583e-04 0.0000000000000000e+00  -4.0948059623305291e-05 -1.8666016924214830e-04 0.0000000000000000e+00  -4.1265667988108273e-05 -1.9077674939700076e-04 0.0000000000000000e+00  -4.1583276352911243e-05 -1.9489332955185319e-04 0.0000000000000000e+00  -4.1900884717714225e-05 -1.9900990970670568e-04 0.0000000000000000e+00  -4.2218493082517194e-05 -2.0312648986155809e-04 0.0000000000000000e+00  -4.2487575799020180e-05 -2.0752763763491771e-04 0.0000000000000000e+00  -4.2756658515523166e-05 -2.1192878540827732e-04 0.0000000000000000e+00  -4.3025741232026159e-05 -2.1632993318163702e-04 0.0000000000000000e+00  -4.3294823948529138e-05 -2.2073108095499661e-04 0.0000000000000000e+00  -4.3563906665032131e-05 -2.2513222872835623e-04 0.0000000000000000e+00  -4.3832989381535110e-05 -2.2953337650171584e-04 0.0000000000000000e+00  -4.4102072098038103e-05 -2.3393452427507543e-04 0.0000000000000000e+00  -4.4371154814541096e-05 -2.3833567204843516e-04 0.0000000000000000e+00  -4.4640237531044075e-05 -2.4273681982179478e-04 0.0000000000000000e+00  -4.4909320247547061e-05 -2.4713796759515437e-04 0.0000000000000000e+00  -4.5133897998650696e-05 -2.5177737756706671e-04 0.0000000000000000e+00  -4.5358475749754331e-05 -2.5641678753897900e-04 0.0000000000000000e+00  -4.5583053500857967e-05 -2.6105619751089139e-04 0.0000000000000000e+00  -4.5807631251961595e-05 -2.6569560748280368e-04 0.0000000000000000e+00  -4.6032209003065230e-05 -2.7033501745471597e-04 0.0000000000000000e+00  -4.6256786754168865e-05 -2.7497442742662831e-04 0.0000000000000000e+00  -4.6481364505272494e-05 -2.7961383739854060e-04 0.0000000000000000e+00  -4.6705942256376135e-05 -2.8425324737045300e-04 0.0000000000000000e+00  -4.6930520007479764e-05 -2.8889265734236534e-04 0.0000000000000000e+00  -4.7155097758583399e-05 -2.9353206731427763e-04 0.0000000000000000e+00  -4.7339195207370202e-05 -2.9836746068545166e-04 0.0000000000000000e+00  -4.7523292656156998e-05 -3.0320285405662569e-04 0.0000000000000000e+00  -4.7707390104943800e-05 -3.0803824742779977e-04 0.0000000000000000e+00  -4.7891487553730603e-05 -3.1287364079897375e-04 0.0000000000000000e+00  -4.8075585002517406e-05 -3.1770903417014778e-04 0.0000000000000000e+00  -4.8259682451304201e-05 -3.2254442754132181e-04 0.0000000000000000e+00  -4.8443779900091004e-05 -3.2737982091249579e-04 0.0000000000000000e+00  -4.8627877348877807e-05 -3.3221521428366993e-04 0.0000000000000000e+00  -4.8811974797664609e-05 -3.3705060765484396e-04 0.0000000000000000e+00  -4.8996072246451405e-05 -3.4188600102601793e-04 0.0000000000000000e+00  -4.9143715335552268e-05 -3.4687912557201288e-04 0.0000000000000000e+00  -4.9291358424653130e-05 -3.5187225011800783e-04 0.0000000000000000e+00  -4.9439001513753992e-05 -3.5686537466400283e-04 0.0000000000000000e+00  -4.9586644602854854e-05 -3.6185849920999773e-04 0.0000000000000000e+00  -4.9734287691955716e-05 -3.6685162375599267e-04 0.0000000000000000e+00  -4.9881930781056578e-05 -3.7184474830198762e-04 0.0000000000000000e+00  -5.0029573870157440e-05 -3.7683787284798257e-04 0.0000000000000000e+00  -5.0177216959258303e-05 -3.8183099739397762e-04 0.0000000000000000e+00  -5.0324860048359171e-05 -3.8682412193997252e-04 0.0000000000000000e+00  -5.0472503137460027e-05 -3.9181724648596747e-04 0.0000000000000000e+00  -5.0587718220180400e-05 -3.9693387654096717e-04 0.0000000000000000e+00  -5.0702933302900760e-05 -4.0205050659596693e-04 0.0000000000000000e+00  -5.0818148385621133e-05 -4.0716713665096669e-04 0.0000000000000000e+00  -5.0933363468341506e-05 -4.1228376670596645e-04 0.0000000000000000e+00  -5.1048578551061872e-05 -4.1740039676096616e-04 0.0000000000000000e+00  -5.1163793633782239e-05 -4.2251702681596586e-04 0.0000000000000000e+00  -5.1279008716502605e-05 -4.2763365687096557e-04 0.0000000000000000e+00  -5.1394223799222985e-05 -4.3275028692596538e-04 0.0000000000000000e+00  -5.1509438881943345e-05 -4.3786691698096509e-04 0.0000000000000000e+00  -5.1624653964663718e-05 -4.4298354703596480e-04 0.0000000000000000e+00  -5.1711467524744396e-05 -4.4819348348977680e-04 0.0000000000000000e+00  -5.1798281084825074e-05 -4.5340341994358881e-04 0.0000000000000000e+00  -5.1885094644905745e-05 -4.5861335639740087e-04 0.0000000000000000e+00  -5.1971908204986430e-05 -4.6382329285121288e-04 0.0000000000000000e+00  -5.2058721765067101e-05 -4.6903322930502489e-04 0.0000000000000000e+00  -5.2145535325147773e-05 -4.7424316575883689e-04 0.0000000000000000e+00  -5.2232348885228457e-05 -4.7945310221264890e-04 0.0000000000000000e+00  -5.2319162445309129e-05 -4.8466303866646096e-04 0.0000000000000000e+00  -5.2405976005389813e-05 -4.8987297512027297e-04 0.0000000000000000e+00  -5.2492789565470485e-05 -4.9508291157408498e-04 0.0000000000000000e+00  -5.2555228123598558e-05 -5.0035998187812538e-04 0.0000000000000000e+00  -5.2617666681726617e-05 -5.0563705218216568e-04 0.0000000000000000e+00  -5.2680105239854683e-05 -5.1091412248620608e-04 0.0000000000000000e+00  -5.2742543797982743e-05 -5.1619119279024649e-04 0.0000000000000000e+00  -5.2804982356110809e-05 -5.2146826309428678e-04 0.0000000000000000e+00  -5.2867420914238882e-05 -5.2674533339832708e-04 0.0000000000000000e+00  -5.2929859472366941e-05 -5.3202240370236748e-04 0.0000000000000000e+00  -5.2992298030495008e-05 -5.3729947400640789e-04 0.0000000000000000e+00  -5.3054736588623081e-05 -5.4257654431044829e-04 0.0000000000000000e+00  -5.3117175146751140e-05 -5.4785361461448859e-04 0.0000000000000000e+00  -5.3159265217488037e-05 -5.5317567279901359e-04 0.0000000000000000e+00  -5.3201355288224921e-05 -5.5849773098353859e-04 0.0000000000000000e+00  -5.3243445358961811e-05 -5.6381978916806371e-04 0.0000000000000000e+00  -5.3285535429698709e-05 -5.6914184735258860e-04 0.0000000000000000e+00  -5.3327625500435599e-05 -5.7446390553711360e-04 0.0000000000000000e+00  -5.3369715571172483e-05 -5.7978596372163850e-04 0.0000000000000000e+00  -5.3411805641909380e-05 -5.8510802190616361e-04 0.0000000000000000e+00  -5.3453895712646271e-05 -5.9043008009068872e-04 0.0000000000000000e+00  -5.3495985783383161e-05 -5.9575213827521361e-04 0.0000000000000000e+00  -5.3538075854120051e-05 -6.0107419645973861e-04 0.0000000000000000e+00  -5.3563843872758993e-05 -6.0642312313379594e-04 0.0000000000000000e+00  -5.3589611891397920e-05 -6.1177204980785306e-04 0.0000000000000000e+00  -5.3615379910036855e-05 -6.1712097648191039e-04 0.0000000000000000e+00  -5.3641147928675789e-05 -6.2246990315596750e-04 0.0000000000000000e+00  -5.3666915947314723e-05 -6.2781882983002483e-04 0.0000000000000000e+00  -5.3692683965953658e-05 -6.3316775650408216e-04 0.0000000000000000e+00  -5.3718451984592592e-05 -6.3851668317813927e-04 0.0000000000000000e+00  -5.3744220003231533e-05 -6.4386560985219660e-04 0.0000000000000000e+00  -5.3769988021870468e-05 -6.4921453652625383e-04 0.0000000000000000e+00  -5.3795756040509402e-05 -6.5456346320031105e-04 0.0000000000000000e+00  -5.3809228008098695e-05 -6.5992516510739911e-04 0.0000000000000000e+00  -5.3822699975687988e-05 -6.6528686701448686e-04 0.0000000000000000e+00  -5.3836171943277275e-05 -6.7064856892157492e-04 0.0000000000000000e+00  -5.3849643910866568e-05 -6.7601027082866277e-04 0.0000000000000000e+00  -5.3863115878455861e-05 -6.8137197273575073e-04 0.0000000000000000e+00  -5.3876587846045154e-05 -6.8673367464283869e-04 0.0000000000000000e+00  -5.3890059813634447e-05 -6.9209537654992654e-04 0.0000000000000000e+00  -5.3903531781223733e-05 -6.9745707845701461e-04 0.0000000000000000e+00  -5.3917003748813033e-05 -7.0281878036410246e-04 0.0000000000000000e+00  -5.3930475716402320e-05 -7.0818048227119042e-04 0.0000000000000000e+00  -5.3935675137950650e-05 -7.1354488780304092e-04 0.0000000000000000e+00  -5.3940874559498966e-05 -7.1890929333489110e-04 0.0000000000000000e+00  -5.3946073981047296e-05 -7.2427369886674149e-04 0.0000000000000000e+00  -5.3951273402595619e-05 -7.2963810439859167e-04 0.0000000000000000e+00  -5.3956472824143943e-05 -7.3500250993044217e-04 0.0000000000000000e+00  -5.3961672245692266e-05 -7.4036691546229268e-04 0.0000000000000000e+00  -5.3966871667240589e-05 -7.4573132099414285e-04 0.0000000000000000e+00  -5.3972071088788919e-05 -7.5109572652599325e-04 0.0000000000000000e+00  -5.3977270510337243e-05 -7.5646013205784353e-04 0.0000000000000000e+00  -5.3982469931885566e-05 -7.6182453758969393e-04 0.0000000000000000e+00  -5.3983413330360032e-05 -7.6718557649488902e-04 0.0000000000000000e+00  -5.3984356728834504e-05 -7.7254661540008380e-04 0.0000000000000000e+00  -5.3985300127308970e-05 -7.7790765430527879e-04 0.0000000000000000e+00  -5.3986243525783436e-05 -7.8326869321047377e-04 0.0000000000000000e+00  -5.3987186924257909e-05 -7.8862973211566876e-04 0.0000000000000000e+00  -5.3988130322732381e-05 -7.9399077102086375e-04 0.0000000000000000e+00  -5.3989073721206847e-05 -7.9935180992605863e-04 0.0000000000000000e+00  -5.3990017119681313e-05 -8.0471284883125362e-04 0.0000000000000000e+00  -5.3990960518155786e-05 -8.1007388773644850e-04 0.0000000000000000e+00  -5.3991903916630252e-05 -8.1543492664164349e-04 0.0000000000000000e+00  0.0000000000000000e+00 0.0000000000000000e+00 0.0000000000000000e+00  1.1538337069444443e-08 -4.5051074028229100e-07 0.0000000000000000e+00  -7.5552627179701080e-07 -1.0155616164149339e-06 0.0000000000000000e+00  -1.5225908806634673e-06 -1.5806124925475780e-06 0.0000000000000000e+00  -2.2896554895299229e-06 -2.1456633686802206e-06 0.0000000000000000e+00  -3.0567200983963781e-06 -2.7107142448128634e-06 0.0000000000000000e+00  -3.8237847072628329e-06 -3.2757651209455062e-06 0.0000000000000000e+00  -4.5908493161292893e-06 -3.8408159970781498e-06 0.0000000000000000e+00  -5.3579139249957449e-06 -4.4058668732107935e-06 0.0000000000000000e+00  -6.1249785338622005e-06 -4.9709177493434363e-06 0.0000000000000000e+00  -6.8920431427286544e-06 -5.5359686254760791e-06 0.0000000000000000e+00  -6.9040962591700916e-06 -6.7585284130898137e-06 0.0000000000000000e+00  -7.5892595320242112e-06 -7.9768893145160978e-06 0.0000000000000000e+00  -8.2744228048783317e-06 -9.1952502159423879e-06 0.0000000000000000e+00  -8.9595860777324505e-06 -1.0413611117368673e-05 0.0000000000000000e+00  -9.6447493505865710e-06 -1.1631972018794963e-05 0.0000000000000000e+00  -1.0329912623440695e-05 -1.2850332920221251e-05 0.0000000000000000e+00  -1.1015075896294812e-05 -1.4068693821647540e-05 0.0000000000000000e+00  -1.1700239169148934e-05 -1.5287054723073828e-05 0.0000000000000000e+00  -1.2385402442003053e-05 -1.6505415624500117e-05 0.0000000000000000e+00  -1.3070565714857173e-05 -1.7723776525926402e-05 0.0000000000000000e+00  -1.3077821094137857e-05 -1.9593437661304015e-05 0.0000000000000000e+00  -1.3695169615697523e-05 -2.1452411429824631e-05 0.0000000000000000e+00  -1.4312518137257188e-05 -2.3311385198345240e-05 0.0000000000000000e+00  -1.4929866658816854e-05 -2.5170358966865857e-05 0.0000000000000000e+00  -1.5547215180376524e-05 -2.7029332735386476e-05 0.0000000000000000e+00  -1.6164563701936190e-05 -2.8888306503907096e-05 0.0000000000000000e+00  -1.6781912223495856e-05 -3.0747280272427712e-05 0.0000000000000000e+00  -1.7399260745055522e-05 -3.2606254040948318e-05 0.0000000000000000e+00  -1.8016609266615188e-05 -3.4465227809468937e-05 0.0000000000000000e+00  -1.8633957788174854e-05 -3.6324201577989550e-05 0.0000000000000000e+00  -1.8638719668794827e-05 -3.8769646828930709e-05 0.0000000000000000e+00  -1.9189591395177250e-05 -4.1204443714522157e-05 0.0000000000000000e+00  -1.9740463121559674e-05 -4.3639240600113590e-05 0.0000000000000000e+00  -2.0291334847942098e-05 -4.6074037485705030e-05 0.0000000000000000e+00  -2.0842206574324522e-05 -4.8508834371296478e-05 0.0000000000000000e+00  -2.1393078300706949e-05 -5.0943631256887931e-05 0.0000000000000000e+00  -2.1943950027089376e-05 -5.3378428142479372e-05 0.0000000000000000e+00  -2.2494821753471796e-05 -5.5813225028070805e-05 0.0000000000000000e+00  -2.3045693479854223e-05 -5.8248021913662252e-05 0.0000000000000000e+00  -2.3596565206236644e-05 -6.0682818799253693e-05 0.0000000000000000e+00  -2.3600304410326093e-05 -6.3637688340028410e-05 0.0000000000000000e+00  -2.4087308453824689e-05 -6.6582472224374222e-05 0.0000000000000000e+00  -2.4574312497323281e-05 -6.9527256108719993e-05 0.0000000000000000e+00  -2.5061316540821877e-05 -7.2472039993065805e-05 0.0000000000000000e+00  -2.5548320584320466e-05 -7.5416823877411576e-05 0.0000000000000000e+00  -2.6035324627819059e-05 -7.8361607761757361e-05 0.0000000000000000e+00  -2.6522328671317658e-05 -8.1306391646103173e-05 0.0000000000000000e+00  -2.7009332714816247e-05 -8.4251175530448958e-05 0.0000000000000000e+00  -2.7496336758314843e-05 -8.7195959414794756e-05 0.0000000000000000e+00  -2.7983340801813432e-05 -9.0140743299140541e-05 0.0000000000000000e+00  -2.7986596777857453e-05 -9.3542645656575168e-05 0.0000000000000000e+00  -2.8413243210942200e-05 -9.6935067758509503e-05 0.0000000000000000e+00  -2.8839889644026944e-05 -1.0032748986044380e-04 0.0000000000000000e+00  -2.9266536077111691e-05 -1.0371991196237813e-04 0.0000000000000000e+00  -2.9693182510196431e-05 -1.0711233406431243e-04 0.0000000000000000e+00  -3.0119828943281178e-05 -1.1050475616624672e-04 0.0000000000000000e+00  -3.0546475376365925e-05 -1.1389717826818107e-04 0.0000000000000000e+00  -3.0973121809450672e-05 -1.1728960037011537e-04 0.0000000000000000e+00  -3.1399768242535419e-05 -1.2068202247204969e-04 0.0000000000000000e+00  -3.1826414675620159e-05 -1.2407444457398397e-04 0.0000000000000000e+00  -3.1829368045086428e-05 -1.2786499912013563e-04 0.0000000000000000e+00  -3.2199510382289174e-05 -1.3164667953348793e-04 0.0000000000000000e+00  -3.2569652719491913e-05 -1.3542835994684017e-04 0.0000000000000000e+00  -3.2939795056694665e-05 -1.3921004036019247e-04 0.0000000000000000e+00  -3.3309937393897397e-05 -1.4299172077354472e-04 0.0000000000000000e+00  -3.3680079731100143e-05 -1.4677340118689702e-04 0.0000000000000000e+00  -3.4050222068302889e-05 -1.5055508160024931e-04 0.0000000000000000e+00  -3.4420364405505627e-05 -1.5433676201360156e-04 0.0000000000000000e+00  -3.4790506742708380e-05 -1.5811844242695386e-04 0.0000000000000000e+00  -3.5160649079911112e-05 -1.6190012284030610e-04 0.0000000000000000e+00  -3.5163358714449876e-05 -1.6602497225936093e-04 0.0000000000000000e+00  -3.5480967079252852e-05 -1.7014155241421340e-04 0.0000000000000000e+00  -3.5798575444055821e-05 -1.7425813256906580e-04 0.0000000000000000e+00  -3.6116183808858797e-05 -1.7837471272391826e-04 0.0000000000000000e+00  -3.6433792173661773e-05 -