<?xml version="1.0"?>
<VTKFile type="UnstructuredGrid"  version="0.1"  >
<UnstructuredGrid>
<Piece  NumberOfPoints="63" NumberOfCells="80">
<Points>
<DataArray  type="Float64"  NumberOfComponents="3"  format="ascii">0 0 0  0.5 0 0  1 0 0  1.5 0 0  2 0 0  2.5 0 0  3 0 0  3.5 0 0  4 0 0  4.5 0 0  5 0 0  5.5 0 0  6 0 0  6.5 0 0  7 0 0  7.5 0 0  8 0 0  8.5 0 0  9 0 0  9.5 0 0  10 0 0  0 0.5 0  0.5 0.5 0  1 0.5 0  1.5 0.5 0  2 0.5 0  2.5 0.5 0  3 0.5 0  3.5 0.5 0  4 0.5 0  4.5 0.5 0  5 0.5 0  5.5 0.5 0  6 0.5 0  6.5 0.5 0  7 0.5 0  7.5 0.5 0  8 0.5 0  8.5 0.5 0  9 0.5 0  9.5 0.5 0  10 0.5 0  0 1 0  0.5 1 0  1 1 0  1.5 1 0  2 1 0  2.5 1 0  3 1 0  3.5 1 0  4 1 0  4.5 1 0  5 1 0  5.5 1 0  6 1 0  6.5 1 0  7 1 0  7.5 1 0  8 1 0  8.5 1 0  9 1 0  9.5 1 0  10 1 0  </DataArray>
</Points>
<Cells>
<DataArray  type="UInt32"  Name="connectivity"  format="ascii">0 1 22  0 21 22  1 2 23  1 22 23  2 3 24  2 23 24  3 4 25  3 24 25  4 5 26  4 25 26  5 6 27  5 26 27  6 7 28  6 27 28  7 8 29  7 28 29  8 9 30  8 29 30  9 10 31  9 30 31  10 11 32  10 31 32  11 12 33  11 32 33  12 13 34  12 33 34  13 14 35  13 34 35  14 15 36  14 35 36  15 16 37  15 36 37  16 17 38  16 37 38  17 18 39  17 38 39  18 19 40  18 39 40  19 20 41  19 40 41  21 22 43  21 42 43  22 23 44  22 43 44  23 24 45  23 44 45  24 25 46  24 45 46  25 26 47  25 46 47  26 27 48  26 47 48  27 28 49  27 48 49  28 29 50  28 49 50  29 30 51  29 50 51  30 31 52  30 51 52  31 32 53  31 52 53  32 33 54  32 53 54  33 34 55  33 54 55  34 35 56  34 55 56  35 36 57  35 56 57  36 37 58  36 57 58  37 38 59  37 58 59  38 39 60  38 59 60  39 40 61  39 60 61  40 41 62  40 61 62  </DataArray>
<DataArray  type="UInt32"  Name="offsets"  format="ascii">3 6 9 12 15 18 21 24 27 30 33 36 39 42 45 48 51 54 57 60 63 66 69 72 75 78 81 84 87 90 93 96 99 102 105 108 111 114 117 120 123 126 129 132 135 138 141 144 147 150 153 156 159 162 165 168 171 174 177 180 183 186 189 192 195 198 201 204 207 210 213 216 219 222 225 228 231 234 237 240 </DataArray>
<DataArray  type="UInt8"  Name="types"  format="ascii">5 5 5 5 5 5 5 5 5 5 5 5 5 5 5 5 5 5 5 5 5 5 5 5 5 5 5 5 5 5 5 5 5 5 5 5 5 5 5 5 5 5 5 5 5 5 5 5 5 5 5 5 5 5 5 5 5 5 5 5 5 5 5 5 5 5 5 5 5 5 5 5 5 5 5 5 5 5 5 5 </DataArray>
</Cells>
<PointData  Vectors="f_8"> 
<DataArray  type="Float64"  Name="f_8"  NumberOfComponents="3" format="ascii">0.0000000000000000e+00 0.0000000000000000e+00 0.0000000000000000e+00  -7.6706460886645543e-06 -5.6505087613264307e-06 0.0000000000000000e+00  -1.4522278817205754e-05 -1.7834117775589309e-05 0.0000000000000000e+00  -2.0695764032802416e-05 -3.6423855460795463e-05 0.0000000000000000e+00  -2.6204481296626656e-05 -6.0771824316709887e-05 0.0000000000000000e+00  -3.1074521731612585e-05 -9.0219663160167796e-05 0.0000000000000000e+00  -3.5340986062460028e-05 -1.2414388417951089e-04 0.0000000000000000e+00  -3.9042409434487450e-05 -1.6196068831303361e-04 0.0000000000000000e+00  -4.2218493082517194e-05 -2.0312648986155809e-04 0.0000000000000000e+00  -4.4909320247547061e-05 -2.4713796759515437e-04 0.0000000000000000e+00  -4.7155097758583399e-05 -2.9353206731427763e-04 0.0000000000000000e+00  -4.8996072246451405e-05 -3.4188600102601793e-04 0.0000000000000000e+00  -5.0472503137460027e-05 -3.9181724648596747e-04 0.0000000000000000e+00  -5.1624653964663718e-05 -4.4298354703596480e-04 0.0000000000000000e+00  -5.2492789565470485e-05 -4.9508291157408498e-04 0.0000000000000000e+00  -5.3117175146751140e-05 -5.4785361461448859e-04 0.0000000000000000e+00  -5.3538075854120051e-05 -6.0107419645973861e-04 0.0000000000000000e+00  -5.3795756040509402e-05 -6.5456346320031105e-04 0.0000000000000000e+00  -5.3930475716402320e-05 -7.0818048227119042e-04 0.0000000000000000e+00  -5.3982469931885566e-05 -7.6182453758969393e-04 0.0000000000000000e+00  -5.3991903916630252e-05 -8.1543492664164349e-04 0.0000000000000000e+00  0.0000000000000000e+00 0.0000000000000000e+00 0.0000000000000000e+00  1.1538337069444453e-07 -4.5051074028229135e-06 0.0000000000000000e+00  -5.1477937199155979e-09 -1.6730705278960244e-05 0.0000000000000000e+00  -7.7701586526764294e-08 -3.5427316632736345e-05 0.0000000000000000e+00  -1.2532039272651520e-07 -5.9881769142147939e-05 0.0000000000000000e+00  -1.6271243362101757e-07 -8.9430464549895218e-05 0.0000000000000000e+00  -1.9527219406128132e-07 -1.2344948812424174e-04 0.0000000000000000e+00  -2.2480588872404347e-07 -1.6135503358575843e-04 0.0000000000000000e+00  -2.5190223411164903e-07 -2.0260352777630677e-04 0.0000000000000000e+00  -2.7675134038668719e-07 -2.4669165524550537e-04 0.0000000000000000e+00  -2.9941439225985933e-07 -2.9315636385778850e-04 0.0000000000000000e+00  -3.1991105842151577e-07 -3.4157486630613266e-04 0.0000000000000000e+00  -3.3824766363696099e-07 -3.9156464056360352e-04 0.0000000000000000e+00  -3.5442625660613471e-07 -4.4278343002436944e-04 0.0000000000000000e+00  -3.6844754809662014e-07 -4.9492924354894519e-04 0.0000000000000000e+00  -3.8031192915210759e-07 -5.4774035548043254e-04 0.0000000000000000e+00  -3.9002002086096750e-07 -6.0099530565837838e-04 0.0000000000000000e+00  -3.9757347068188695e-07 -6.5451289947467844e-04 0.0000000000000000e+00  -4.0297649576396206e-07 -7.0815220819996929e-04 0.0000000000000000e+00  -4.0623423180215052e-07 -7.6181256948550742e-04 0.0000000000000000e+00  -4.0726966516060308e-07 -8.1543352729305477e-04 0.0000000000000000e+00  0.0000000000000000e+00 0.0000000000000000e+00 0.0000000000000000e+00  7.3838621077025965e-06 -5.4637846294157493e-06 0.0000000000000000e+00  1.4335763793948921e-05 -1.7551530670420901e-05 0.0000000000000000e+00  2.0491624145517676e-05 -3.6164001067158136e-05 0.0000000000000000e+00  2.5946820584076856e-05 -6.0535817251464950e-05 0.0000000000000000e+00  3.0755524849546941e-05 -9.0001936054396220e-05 0.0000000000000000e+00  3.4961193535271792e-05 -1.2394189406527179e-04 0.0000000000000000e+00  3.8604938829613468e-05 -1.6177352687056821e-04 0.0000000000000000e+00  4.1727276090695399e-05 -2.0295385437827984e-04 0.0000000000000000e+00  4.4368548404092536e-05 -2.4697975953115637e-04 0.0000000000000000e+00  4.6569045863863835e-05 -2.9338825486157114e-04 0.0000000000000000e+00  4.8369041824364295e-05 -3.4175657394642177e-04 0.0000000000000000e+00  4.9808804300115870e-05 -3.9170220147993718e-04 0.0000000000000000e+00  5.0928599605510870e-05 -4.4288288301617170e-04 0.0000000000000000e+00  5.1768693543574468e-05 -4.9499662810813109e-04 0.0000000000000000e+00  5.2369351858572178e-05 -5.4778171131912926e-04 0.0000000000000000e+00  5.2770840594371776e-05 -6.0101667257180847e-04 0.0000000000000000e+00  5.3013426800319366e-05 -6.5452031748796237e-04 0.0000000000000000e+00  5.3137379983479865e-05 -7.0815171950721679e-04 0.0000000000000000e+00  5.3182971056801429e-05 -7.6181023830620748e-04 0.0000000000000000e+00  5.3190416705812425e-05 -8.1543569525029482e-04 0.0000000000000000e+00  </DataArray> 
</PointData> 
</Piece>
</UnstructuredGrid>
</VTKFile>