<?xml version="1.0"?>
<VTKFile type="UnstructuredGrid"  version="0.1"  >
<UnstructuredGrid>
<Piece  NumberOfPoints="1111" NumberOfCells="1000">
<Points>
<DataArray  type="Float64"  NumberOfComponents="3"  format="ascii">0 0 0  0.1 0 0  0.2 0 0  0.3 0 0  0.4 0 0  0.5 0 0  0.6 0 0  0.7 0 0  0.8 0 0  0.9 0 0  1 0 0  1.1 0 0  1.2 0 0  1.3 0 0  1.4 0 0  1.5 0 0  1.6 0 0  1.7 0 0  1.8 0 0  1.9 0 0  2 0 0  2.1 0 0  2.2 0 0  2.3 0 0  2.4 0 0  2.5 0 0  2.6 0 0  2.7 0 0  2.8 0 0  2.9 0 0  3 0 0  3.1 0 0  3.2 0 0  3.3 0 0  3.4 0 0  3.5 0 0  3.6 0 0  3.7 0 0  3.8 0 0  3.9 0 0  4 0 0  4.1 0 0  4.2 0 0  4.3 0 0  4.4 0 0  4.5 0 0  4.6 0 0  4.7 0 0  4.8 0 0  4.9 0 0  5 0 0  5.1 0 0  5.2 0 0  5.3 0 0  5.4 0 0  5.5 0 0  5.6 0 0  5.7 0 0  5.8 0 0  5.9 0 0  6 0 0  6.1 0 0  6.2 0 0  6.3 0 0  6.4 0 0  6.5 0 0  6.6 0 0  6.7 0 0  6.8 0 0  6.9 0 0  7 0 0  7.1 0 0  7.2 0 0  7.3 0 0  7.4 0 0  7.5 0 0  7.6 0 0  7.7 0 0  7.8 0 0  7.9 0 0  8 0 0  8.1 0 0  8.199999999999999 0 0  8.300000000000001 0 0  8.4 0 0  8.5 0 0  8.6 0 0  8.699999999999999 0 0  8.800000000000001 0 0  8.9 0 0  9 0 0  9.1 0 0  9.199999999999999 0 0  9.300000000000001 0 0  9.4 0 0  9.5 0 0  9.6 0 0  9.699999999999999 0 0  9.800000000000001 0 0  9.9 0 0  10 0 0  0 0.1 0  0.1 0.1 0  0.2 0.1 0  0.3 0.1 0  0.4 0.1 0  0.5 0.1 0  0.6 0.1 0  0.7 0.1 0  0.8 0.1 0  0.9 0.1 0  1 0.1 0  1.1 0.1 0  1.2 0.1 0  1.3 0.1 0  1.4 0.1 0  1.5 0.1 0  1.6 0.1 0  1.7 0.1 0  1.8 0.1 0  1.9 0.1 0  2 0.1 0  2.1 0.1 0  2.2 0.1 0  2.3 0.1 0  2.4 0.1 0  2.5 0.1 0  2.6 0.1 0  2.7 0.1 0  2.8 0.1 0  2.9 0.1 0  3 0.1 0  3.1 0.1 0  3.2 0.1 0  3.3 0.1 0  3.4 0.1 0  3.5 0.1 0  3.6 0.1 0  3.7 0.1 0  3.8 0.1 0  3.9 0.1 0  4 0.1 0  4.1 0.1 0  4.2 0.1 0  4.3 0.1 0  4.4 0.1 0  4.5 0.1 0  4.6 0.1 0  4.7 0.1 0  4.8 0.1 0  4.9 0.1 0  5 0.1 0  5.1 0.1 0  5.2 0.1 0  5.3 0.1 0  5.4 0.1 0  5.5 0.1 0  5.6 0.1 0  5.7 0.1 0  5.8 0.1 0  5.9 0.1 0  6 0.1 0  6.1 0.1 0  6.2 0.1 0  6.3 0.1 0  6.4 0.1 0  6.5 0.1 0  6.6 0.1 0  6.7 0.1 0  6.8 0.1 0  6.9 0.1 0  7 0.1 0  7.1 0.1 0  7.2 0.1 0  7.3 0.1 0  7.4 0.1 0  7.5 0.1 0  7.6 0.1 0  7.7 0.1 0  7.8 0.1 0  7.9 0.1 0  8 0.1 0  8.1 0.1 0  8.199999999999999 0.1 0  8.300000000000001 0.1 0  8.4 0.1 0  8.5 0.1 0  8.6 0.1 0  8.699999999999999 0.1 0  8.800000000000001 0.1 0  8.9 0.1 0  9 0.1 0  9.1 0.1 0  9.199999999999999 0.1 0  9.300000000000001 0.1 0  9.4 0.1 0  9.5 0.1 0  9.6 0.1 0  9.699999999999999 0.1 0  9.800000000000001 0.1 0  9.9 0.1 0  10 0.1 0  0 0.2 0  0.1 0.2 0  0.2 0.2 0  0.3 0.2 0  0.4 0.2 0  0.5 0.2 0  0.6 0.2 0  0.7 0.2 0  0.8 0.2 0  0.9 0.2 0  1 0.2 0  1.1 0.2 0  1.2 0.2 0  1.3 0.2 0  1.4 0.2 0  1.5 0.2 0  1.6 0.2 0  1.7 0.2 0  1.8 0.2 0  1.9 0.2 0  2 0.2 0  2.1 0.2 0  2.2 0.2 0  2.3 0.2 0  2.4 0.2 0  2.5 0.2 0  2.6 0.2 0  2.7 0.2 0  2.8 0.2 0  2.9 0.2 0  3 0.2 0  3.1 0.2 0  3.2 0.2 0  3.3 0.2 0  3.4 0.2 0  3.5 0.2 0  3.6 0.2 0  3.7 0.2 0  3.8 0.2 0  3.9 0.2 0  4 0.2 0  4.1 0.2 0  4.2 0.2 0  4.3 0.2 0  4.4 0.2 0  4.5 0.2 0  4.6 0.2 0  4.7 0.2 0  4.8 0.2 0  4.9 0.2 0  5 0.2 0  5.1 0.2 0  5.2 0.2 0  5.3 0.2 0  5.4 0.2 0  5.5 0.2 0  5.6 0.2 0  5.7 0.2 0  5.8 0.2 0  5.9 0.2 0  6 0.2 0  6.1 0.2 0  6.2 0.2 0  6.3 0.2 0  6.4 0.2 0  6.5 0.2 0  6.6 0.2 0  6.7 0.2 0  6.8 0.2 0  6.9 0.2 0  7 0.2 0  7.1 0.2 0  7.2 0.2 0  7.3 0.2 0  7.4 0.2 0  7.5 0.2 0  7.6 0.2 0  7.7 0.2 0  7.8 0.2 0  7.9 0.2 0  8 0.2 0  8.1 0.2 0  8.199999999999999 0.2 0  8.300000000000001 0.2 0  8.4 0.2 0  8.5 0.2 0  8.6 0.2 0  8.699999999999999 0.2 0  8.800000000000001 0.2 0  8.9 0.2 0  9 0.2 0  9.1 0.2 0  9.199999999999999 0.2 0  9.300000000000001 0.2 0  9.4 0.2 0  9.5 0.2 0  9.6 0.2 0  9.699999999999999 0.2 0  9.800000000000001 0.2 0  9.9 0.2 0  10 0.2 0  0 0.3 0  0.1 0.3 0  0.2 0.3 0  0.3 0.3 0  0.4 0.3 0  0.5 0.3 0  0.6 0.3 0  0.7 0.3 0  0.8 0.3 0  0.9 0.3 0  1 0.3 0  1.1 0.3 0  1.2 0.3 0  1.3 0.3 0  1.4 0.3 0  1.5 0.3 0  1.6 0.3 0  1.7 0.3 0  1.8 0.3 0  1.9 0.3 0  2 0.3 0  2.1 0.3 0  2.2 0.3 0  2.3 0.3 0  2.4 0.3 0  2.5 0.3 0  2.6 0.3 0  2.7 0.3 0  2.8 0.3 0  2.9 0.3 0  3 0.3 0  3.1 0.3 0  3.2 0.3 0  3.3 0.3 0  3.4 0.3 0  3.5 0.3 0  3.6 0.3 0  3.7 0.3 0  3.8 0.3 0  3.9 0.3 0  4 0.3 0  4.1 0.3 0  4.2 0.3 0  4.3 0.3 0  4.4 0.3 0  4.5 0.3 0  4.6 0.3 0  4.7 0.3 0  4.8 0.3 0  4.9 0.3 0  5 0.3 0  5.1 0.3 0  5.2 0.3 0  5.3 0.3 0  5.4 0.3 0  5.5 0.3 0  5.6 0.3 0  5.7 0.3 0  5.8 0.3 0  5.9 0.3 0  6 0.3 0  6.1 0.3 0  6.2 0.3 0  6.3 0.3 0  6.4 0.3 0  6.5 0.3 0  6.6 0.3 0  6.7 0.3 0  6.8 0.3 0  6.9 0.3 0  7 0.3 0  7.1 0.3 0  7.2 0.3 0  7.3 0.3 0  7.4 0.3 0  7.5 0.3 0  7.6 0.3 0  7.7 0.3 0  7.8 0.3 0  7.9 0.3 0  8 0.3 0  8.1 0.3 0  8.199999999999999 0.3 0  8.300000000000001 0.3 0  8.4 0.3 0  8.5 0.3 0  8.6 0.3 0  8.699999999999999 0.3 0  8.800000000000001 0.3 0  8.9 0.3 0  9 0.3 0  9.1 0.3 0  9.199999999999999 0.3 0  9.300000000000001 0.3 0  9.4 0.3 0  9.5 0.3 0  9.6 0.3 0  9.699999999999999 0.3 0  9.800000000000001 0.3 0  9.9 0.3 0  10 0.3 0  0 0.4 0  0.1 0.4 0  0.2 0.4 0  0.3 0.4 0  0.4 0.4 0  0.5 0.4 0  0.6 0.4 0  0.7 0.4 0  0.8 0.4 0  0.9 0.4 0  1 0.4 0  1.1 0.4 0  1.2 0.4 0  1.3 0.4 0  1.4 0.4 0  1.5 0.4 0  1.6 0.4 0  1.7 0.4 0  1.8 0.4 0  1.9 0.4 0  2 0.4 0  2.1 0.4 0  2.2 0.4 0  2.3 0.4 0  2.4 0.4 0  2.5 0.4 0  2.6 0.4 0  2.7 0.4 0  2.8 0.4 0  2.9 0.4 0  3 0.4 0  3.1 0.4 0  3.2 0.4 0  3.3 0.4 0  3.4 0.4 0  3.5 0.4 0  3.6 0.4 0  3.7 0.4 0  3.8 0.4 0  3.9 0.4 0  4 0.4 0  4.1 0.4 0  4.2 0.4 0  4.3 0.4 0  4.4 0.4 0  4.5 0.4 0  4.6 0.4 0  4.7 0.4 0  4.8 0.4 0  4.9 0.4 0  5 0.4 0  5.1 0.4 0  5.2 0.4 0  5.3 0.4 0  5.4 0.4 0  5.5 0.4 0  5.6 0.4 0  5.7 0.4 0  5.8 0.4 0  5.9 0.4 0  6 0.4 0  6.1 0.4 0  6.2 0.4 0  6.3 0.4 0  6.4 0.4 0  6.5 0.4 0  6.6 0.4 0  6.7 0.4 0  6.8 0.4 0  6.9 0.4 0  7 0.4 0  7.1 0.4 0  7.2 0.4 0  7.3 0.4 0  7.4 0.4 0  7.5 0.4 0  7.6 0.4 0  7.7 0.4 0  7.8 0.4 0  7.9 0.4 0  8 0.4 0  8.1 0.4 0  8.199999999999999 0.4 0  8.300000000000001 0.4 0  8.4 0.4 0  8.5 0.4 0  8.6 0.4 0  8.699999999999999 0.4 0  8.800000000000001 0.4 0  8.9 0.4 0  9 0.4 0  9.1 0.4 0  9.199999999999999 0.4 0  9.300000000000001 0.4 0  9.4 0.4 0  9.5 0.4 0  9.6 0.4 0  9.699999999999999 0.4 0  9.800000000000001 0.4 0  9.9 0.4 0  10 0.4 0  0 0.5 0  0.1 0.5 0  0.2 0.5 0  0.3 0.5 0  0.4 0.5 0  0.5 0.5 0  0.6 0.5 0  0.7 0.5 0  0.8 0.5 0  0.9 0.5 0  1 0.5 0  1.1 0.5 0  1.2 0.5 0  1.3 0.5 0  1.4 0.5 0  1.5 0.5 0  1.6 0.5 0  1.7 0.5 0  1.8 0.5 0  1.9 0.5 0  2 0.5 0  2.1 0.5 0  2.2 0.5 0  2.3 0.5 0  2.4 0.5 0  2.5 0.5 0  2.6 0.5 0  2.7 0.5 0  2.8 0.5 0  2.9 0.5 0  3 0.5 0  3.1 0.5 0  3.2 0.5 0  3.3 0.5 0  3.4 0.5 0  3.5 0.5 0  3.6 0.5 0  3.7 0.5 0  3.8 0.5 0  3.9 0.5 0  4 0.5 0  4.1 0.5 0  4.2 0.5 0  4.3 0.5 0  4.4 0.5 0  4.5 0.5 0  4.6 0.5 0  4.7 0.5 0  4.8 0.5 0  4.9 0.5 0  5 0.5 0  5.1 0.5 0  5.2 0.5 0  5.3 0.5 0  5.4 0.5 0  5.5 0.5 0  5.6 0.5 0  5.7 0.5 0  5.8 0.5 0  5.9 0.5 0  6 0.5 0  6.1 0.5 0  6.2 0.5 0  6.3 0.5 0  6.4 0.5 0  6.5 0.5 0  6.6 0.5 0  6.7 0.5 0  6.8 0.5 0  6.9 0.5 0  7 0.5 0  7.1 0.5 0  7.2 0.5 0  7.3 0.5 0  7.4 0.5 0  7.5 0.5 0  7.6 0.5 0  7.7 0.5 0  7.8 0.5 0  7.9 0.5 0  8 0.5 0  8.1 0.5 0  8.199999999999999 0.5 0  8.300000000000001 0.5 0  8.4 0.5 0  8.5 0.5 0  8.6 0.5 0  8.699999999999999 0.5 0  8.800000000000001 0.5 0  8.9 0.5 0  9 0.5 0  9.1 0.5 0  9.199999999999999 0.5 0  9.300000000000001 0.5 0  9.4 0.5 0  9.5 0.5 0  9.6 0.5 0  9.699999999999999 0.5 0  9.800000000000001 0.5 0  9.9 0.5 0  10 0.5 0  0 0.6 0  0.1 0.6 0  0.2 0.6 0  0.3 0.6 0  0.4 0.6 0  0.5 0.6 0  0.6 0.6 0  0.7 0.6 0  0.8 0.6 0  0.9 0.6 0  1 0.6 0  1.1 0.6 0  1.2 0.6 0  1.3 0.6 0  1.4 0.6 0  1.5 0.6 0  1.6 0.6 0  1.7 0.6 0  1.8 0.6 0  1.9 0.6 0  2 0.6 0  2.1 0.6 0  2.2 0.6 0  2.3 0.6 0  2.4 0.6 0  2.5 0.6 0  2.6 0.6 0  2.7 0.6 0  2.8 0.6 0  2.9 0.6 0  3 0.6 0  3.1 0.6 0  3.2 0.6 0  3.3 0.6 0  3.4 0.6 0  3.5 0.6 0  3.6 0.6 0  3.7 0.6 0  3.8 0.6 0  3.9 0.6 0  4 0.6 0  4.1 0.6 0  4.2 0.6 0  4.3 0.6 0  4.4 0.6 0  4.5 0.6 0  4.6 0.6 0  4.7 0.6 0  4.8 0.6 0  4.9 0.6 0  5 0.6 0  5.1 0.6 0  5.2 0.6 0  5.3 0.6 0  5.4 0.6 0  5.5 0.6 0  5.6 0.6 0  5.7 0.6 0  5.8 0.6 0  5.9 0.6 0  6 0.6 0  6.1 0.6 0  6.2 0.6 0  6.3 0.6 0  6.4 0.6 0  6.5 0.6 0  6.6 0.6 0  6.7 0.6 0  6.8 0.6 0  6.9 0.6 0  7 0.6 0  7.1 0.6 0  7.2 0.6 0  7.3 0.6 0  7.4 0.6 0  7.5 0.6 0  7.6 0.6 0  7.7 0.6 0  7.8 0.6 0  7.9 0.6 0  8 0.6 0  8.1 0.6 0  8.199999999999999 0.6 0  8.300000000000001 0.6 0  8.4 0.6 0  8.5 0.6 0  8.6 0.6 0  8.699999999999999 0.6 0  8.800000000000001 0.6 0  8.9 0.6 0  9 0.6 0  9.1 0.6 0  9.199999999999999 0.6 0  9.300000000000001 0.6 0  9.4 0.6 0  9.5 0.6 0  9.6 0.6 0  9.699999999999999 0.6 0  9.800000000000001 0.6 0  9.9 0.6 0  10 0.6 0  0 0.7 0  0.1 0.7 0  0.2 0.7 0  0.3 0.7 0  0.4 0.7 0  0.5 0.7 0  0.6 0.7 0  0.7 0.7 0  0.8 0.7 0  0.9 0.7 0  1 0.7 0  1.1 0.7 0  1.2 0.7 0  1.3 0.7 0  1.4 0.7 0  1.5 0.7 0  1.6 0.7 0  1.7 0.7 0  1.8 0.7 0  1.9 0.7 0  2 0.7 0  2.1 0.7 0  2.2 0.7 0  2.3 0.7 0  2.4 0.7 0  2.5 0.7 0  2.6 0.7 0  2.7 0.7 0  2.8 0.7 0  2.9 0.7 0  3 0.7 0  3.1 0.7 0  3.2 0.7 0  3.3 0.7 0  3.4 0.7 0  3.5 0.7 0  3.6 0.7 0  3.7 0.7 0  3.8 0.7 0  3.9 0.7 0  4 0.7 0  4.1 0.7 0  4.2 0.7 0  4.3 0.7 0  4.4 0.7 0  4.5 0.7 0  4.6 0.7 0  4.7 0.7 0  4.8 0.7 0  4.9 0.7 0  5 0.7 0  5.1 0.7 0  5.2 0.7 0  5.3 0.7 0  5.4 0.7 0  5.5 0.7 0  5.6 0.7 0  5.7 0.7 0  5.8 0.7 0  5.9 0.7 0  6 0.7 0  6.1 0.7 0  6.2 0.7 0  6.3 0.7 0  6.4 0.7 0  6.5 0.7 0  6.6 0.7 0  6.7 0.7 0  6.8 0.7 0  6.9 0.7 0  7 0.7 0  7.1 0.7 0  7.2 0.7 0  7.3 0.7 0  7.4 0.7 0  7.5 0.7 0  7.6 0.7 0  7.7 0.7 0  7.8 0.7 0  7.9 0.7 0  8 0.7 0  8.1 0.7 0  8.199999999999999 0.7 0  8.300000000000001 0.7 0  8.4 0.7 0  8.5 0.7 0  8.6 0.7 0  8.699999999999999 0.7 0  8.800000000000001 0.7 0  8.9 0.7 0  9 0.7 0  9.1 0.7 0  9.199999999999999 0.7 0  9.300000000000001 0.7 0  9.4 0.7 0  9.5 0.7 0  9.6 0.7 0  9.699999999999999 0.7 0  9.800000000000001 0.7 0  9.9 0.7 0  10 0.7 0  0 0.8 0  0.1 0.8 0  0.2 0.8 0  0.3 0.8 0  0.4 0.8 0  0.5 0.8 0  0.6 0.8 0  0.7 0.8 0  0.8 0.8 0  0.9 0.8 0  1 0.8 0  1.1 0.8 0  1.2 0.8 0  1.3 0.8 0  1.4 0.8 0  1.5 0.8 0  1.6 0.8 0  1.7 0.8 0  1.8 0.8 0  1.9 0.8 0  2 0.8 0  2.1 0.8 0  2.2 0.8 0  2.3 0.8 0  2.4 0.8 0  2.5 0.8 0  2.6 0.8 0  2.7 0.8 0  2.8 0.8 0  2.9 0.8 0  3 0.8 0  3.1 0.8 0  3.2 0.8 0  3.3 0.8 0  
[...]
<PointData  Vectors="f_11"> 
<DataArray  type="Float64"  Name="f_11"  NumberOfComponents="3" format="ascii">0.0000000000000000e+00 0.0000000000000000e+00 0.0000000000000000e+00  -3.1904585654294840e-06 -1.6914418067950332e-06 0.0000000000000000e+00  -6.0181719912325258e-06 -3.0682923321465486e-06 0.0000000000000000e+00  -8.7791807240009433e-06 -4.8625398709132366e-06 0.0000000000000000e+00  -1.1512698449516609e-05 -7.1358315787793579e-06 0.0000000000000000e+00  -1.4209918966313332e-05 -9.9316386087154169e-06 0.0000000000000000e+00  -1.6862803544257028e-05 -1.3254855414371270e-05 0.0000000000000000e+00  -1.9465963847248312e-05 -1.7100904399718502e-05 0.0000000000000000e+00  -2.2016649195591138e-05 -2.1460667465211229e-05 0.0000000000000000e+00  -2.4513731998313286e-05 -2.6323584116049266e-05 0.0000000000000000e+00  -2.6956999402974038e-05 -3.1678698821719679e-05 0.0000000000000000e+00  -2.9346700798247812e-05 -3.7515074745076477e-05 0.0000000000000000e+00  -3.1683300246990412e-05 -4.3821913768476852e-05 0.0000000000000000e+00  -3.3967352258674699e-05 -5.0588577306104496e-05 0.0000000000000000e+00  -3.6199445093636993e-05 -5.7804577711491110e-05 0.0000000000000000e+00  -3.8380177305240865e-05 -6.5459566138300110e-05 0.0000000000000000e+00  -4.0510149234434391e-05 -7.3543323548902443e-05 0.0000000000000000e+00  -4.2589960560023776e-05 -8.2045755351858391e-05 0.0000000000000000e+00  -4.4620209977619801e-05 -9.0956888585158472e-05 0.0000000000000000e+00  -4.6601495450304891e-05 -1.0026687057779932e-04 0.0000000000000000e+00  -4.8534414502842917e-05 -1.0996596837264127e-04 0.0000000000000000e+00  -5.0419564429351096e-05 -1.2004456850471132e-04 0.0000000000000000e+00  -5.2257542414169893e-05 -1.3049317692985786e-04 0.0000000000000000e+00  -5.4048945594221727e-05 -1.4130241900967732e-04 0.0000000000000000e+00  -5.5794371088172304e-05 -1.5246303951370408e-04 0.0000000000000000e+00  -5.7494416008787845e-05 -1.6396590262466955e-04 0.0000000000000000e+00  -5.9149677467572085e-05 -1.7580199194271797e-04 0.0000000000000000e+00  -6.0760752576194994e-05 -1.8796241048801577e-04 0.0000000000000000e+00  -6.2328238446751971e-05 -2.0043838070215637e-04 0.0000000000000000e+00  -6.3852732191681727e-05 -2.1322124444884285e-04 0.0000000000000000e+00  -6.5334830923636126e-05 -2.2630246301418770e-04 0.0000000000000000e+00  -6.6775131755382182e-05 -2.3967361710683295e-04 0.0000000000000000e+00  -6.8174231799742651e-05 -2.5332640685798947e-04 0.0000000000000000e+00  -6.9532728169564980e-05 -2.6725265182144724e-04 0.0000000000000000e+00  -7.0851217977706594e-05 -2.8144429097357488e-04 0.0000000000000000e+00  -7.2130298337028125e-05 -2.9589338271331810e-04 0.0000000000000000e+00  -7.3370566360390902e-05 -3.1059210486219721e-04 0.0000000000000000e+00  -7.4572619160656262e-05 -3.2553275466430589e-04 0.0000000000000000e+00  -7.5737053850685504e-05 -3.4070774878630991e-04 0.0000000000000000e+00  -7.6864467543339861e-05 -3.5610962331744878e-04 0.0000000000000000e+00  -7.7955457351480155e-05 -3.7173103376953300e-04 0.0000000000000000e+00  -7.9010620387967524e-05 -3.8756475507694614e-04 0.0000000000000000e+00  -8.0030553765662860e-05 -4.0360368159664354e-04 0.0000000000000000e+00  -8.1015854597427393e-05 -4.1984082710815296e-04 0.0000000000000000e+00  -8.1967119996121786e-05 -4.3626932481357527e-04 0.0000000000000000e+00  -8.2884947074606742e-05 -4.5288242733758149e-04 0.0000000000000000e+00  -8.3769932945743287e-05 -4.6967350672741642e-04 0.0000000000000000e+00  -8.4622674722392328e-05 -4.8663605445289617e-04 0.0000000000000000e+00  -8.5443769517414689e-05 -5.0376368140640955e-04 0.0000000000000000e+00  -8.6233814443671168e-05 -5.2105011790291736e-04 0.0000000000000000e+00  -8.6993406614022616e-05 -5.3848921367995206e-04 0.0000000000000000e+00  -8.7723143141330115e-05 -5.5607493789761888e-04 0.0000000000000000e+00  -8.8423621138454449e-05 -5.7380137913859560e-04 0.0000000000000000e+00  -8.9095437718256240e-05 -5.9166274540813123e-04 0.0000000000000000e+00  -8.9739189993596569e-05 -6.0965336413404717e-04 0.0000000000000000e+00  -9.0355475077336531e-05 -6.2776768216673770e-04 0.0000000000000000e+00  -9.0944890082336491e-05 -6.4600026577916884e-04 0.0000000000000000e+00  -9.1508032121457328e-05 -6.6434580066687871e-04 0.0000000000000000e+00  -9.2045498307560271e-05 -6.8279909194797657e-04 0.0000000000000000e+00  -9.2557885753506011e-05 -7.0135506416314644e-04 0.0000000000000000e+00  -9.3045791572155467e-05 -7.2000876127564100e-04 0.0000000000000000e+00  -9.3509812876369530e-05 -7.3875534667128837e-04 0.0000000000000000e+00  -9.3950546779009094e-05 -7.5759010315848733e-04 0.0000000000000000e+00  -9.4368590392935497e-05 -7.7650843296820846e-04 0.0000000000000000e+00  -9.4764540831009090e-05 -7.9550585775399767e-04 0.0000000000000000e+00  -9.5138995206090331e-05 -8.1457801859196796e-04 0.0000000000000000e+00  -9.5492550631040831e-05 -8.3372067598080641e-04 0.0000000000000000e+00  -9.5825804218721645e-05 -8.5292970984177541e-04 0.0000000000000000e+00  -9.6139353081993231e-05 -8.7220111951870469e-04 0.0000000000000000e+00  -9.6433794333716509e-05 -8.9153102377800028e-04 0.0000000000000000e+00  -9.6709725086752506e-05 -9.1091566080863696e-04 0.0000000000000000e+00  -9.6967742453962468e-05 -9.3035138822216454e-04 0.0000000000000000e+00  -9.7208443548207001e-05 -9.4983468305270304e-04 0.0000000000000000e+00  -9.7432425482347636e-05 -9.6936214175694503e-04 0.0000000000000000e+00  -9.7640285369247350e-05 -9.8893048021415323e-04 0.0000000000000000e+00  -9.7832620321772052e-05 -1.0085365337261661e-03 0.0000000000000000e+00  -9.8010027452792296e-05 -1.0281772570173947e-03 0.0000000000000000e+00  -9.8173103875188409e-05 -1.0478497242348310e-03 0.0000000000000000e+00  -9.8322446701855476e-05 -1.0675511289480646e-03 0.0000000000000000e+00  -9.8458653045704059e-05 -1.0872787841493109e-03 0.0000000000000000e+00  -9.8582320019641929e-05 -1.1070301222534792e-03 0.0000000000000000e+00  -9.8694044736494105e-05 -1.1268026950982909e-03 0.0000000000000000e+00  -9.8794424308762947e-05 -1.1465941739444564e-03 0.0000000000000000e+00  -9.8884055848010851e-05 -1.1664023494758718e-03 0.0000000000000000e+00  -9.8963536463449029e-05 -1.1862251317995849e-03 0.0000000000000000e+00  -9.9033463259002298e-05 -1.2060605504448205e-03 0.0000000000000000e+00  -9.9094433327796697e-05 -1.2259067543590484e-03 0.0000000000000000e+00  -9.9147043743107326e-05 -1.2457620118965754e-03 0.0000000000000000e+00  -9.9191891546641925e-05 -1.2656247107899015e-03 0.0000000000000000e+00  -9.9229573742128197e-05 -1.2854933580852327e-03 0.0000000000000000e+00  -9.9260687322626489e-05 -1.3053665800105171e-03 0.0000000000000000e+00  -9.9285829410988846e-05 -1.3252431217322634e-03 0.0000000000000000e+00  -9.9305597707281210e-05 -1.3451218469672339e-03 0.0000000000000000e+00  -9.9320591670827829e-05 -1.3650017375102105e-03 0.0000000000000000e+00  -9.9331415297283326e-05 -1.3848818930828272e-03 0.0000000000000000e+00  -9.9338683054056868e-05 -1.4047615328869538e-03 0.0000000000000000e+00  -9.9343031424192039e-05 -1.4246400027119899e-03 0.0000000000000000e+00  -9.9345138787376453e-05 -1.4445167973565168e-03 0.0000000000000000e+00  -9.9345752053542181e-05 -1.4643916214690455e-03 0.0000000000000000e+00  -9.9345691414841076e-05 -1.4842645427752023e-03 0.0000000000000000e+00  -9.9345667802540634e-05 -1.5041363180603204e-03 0.0000000000000000e+00  0.0000000000000000e+00 0.0000000000000000e+00 0.0000000000000000e+00  -2.1538700328189953e-06 -8.9875507112189550e-07 0.0000000000000000e+00  -4.5170990153532693e-06 -2.3206245044502901e-06 0.0000000000000000e+00  -6.8013163905746220e-06 -4.1101902587292226e-06 0.0000000000000000e+00  -9.0258790488902050e-06 -6.3968744393094210e-06 0.0000000000000000e+00  -1.1201462728758510e-05 -9.2057290805449897e-06 0.0000000000000000e+00  -1.3332081726715304e-05 -1.2543221035087638e-05 0.0000000000000000e+00  -1.5418754918326792e-05 -1.6403875516186031e-05 0.0000000000000000e+00  -1.7461738060932280e-05 -2.0778367792267392e-05 0.0000000000000000e+00  -1.9461211976254447e-05 -2.5655971989176172e-05 0.0000000000000000e+00  -2.1417444472628995e-05 -3.1025661143001750e-05 0.0000000000000000e+00  -2.3330792385051259e-05 -3.6876465999813773e-05 0.0000000000000000e+00  -2.5201671756820557e-05 -4.3197576310554536e-05 0.0000000000000000e+00  -2.7030531775615452e-05 -4.9978349625394548e-05 0.0000000000000000e+00  -2.8817838203499717e-05 -5.7208297549548340e-05 0.0000000000000000e+00  -3.0564064331259409e-05 -6.4877071410608040e-05 0.0000000000000000e+00  -3.2269686536872076e-05 -7.2974452491528712e-05 0.0000000000000000e+00  -3.3935182303759145e-05 -8.1490346448649344e-05 0.0000000000000000e+00  -3.5561029425283588e-05 -9.0414780470877520e-05 0.0000000000000000e+00  -3.7147705729105873e-05 -9.9737901967584156e-05 0.0000000000000000e+00  -3.8695689005540808e-05 -1.0944997802028501e-04 0.0000000000000000e+00  -4.0205457004044998e-05 -1.1954139518088861e-04 0.0000000000000000e+00  -4.1677487445790851e-05 -1.3000265941183662e-04 0.0000000000000000e+00  -4.3112258035661763e-05 -1.4082439607690923e-04 0.0000000000000000e+00  -4.4510246470202462e-05 -1.5199734994614459e-04 0.0000000000000000e+00  -4.5871930442085949e-05 -1.6351238520224476e-04 0.0000000000000000e+00  -4.7197787642357371e-05 -1.7536048544521734e-04 0.0000000000000000e+00  -4.8488295761457968e-05 -1.8753275369511323e-04 0.0000000000000000e+00  -4.9743932489646637e-05 -2.0002041239345296e-04 0.0000000000000000e+00  -5.0965175517152174e-05 -2.1281480340389923e-04 0.0000000000000000e+00  -5.2152502534216170e-05 -2.2590738801254537e-04 0.0000000000000000e+00  -5.3306391231098558e-05 -2.3928974692802405e-04 0.0000000000000000e+00  -5.4427319298072593e-05 -2.5295358028154324e-04 0.0000000000000000e+00  -5.5515764425419536e-05 -2.6689070762689115e-04 0.0000000000000000e+00  -5.6572204303424845e-05 -2.8109306794043637e-04 0.0000000000000000e+00  -5.7597116622375932e-05 -2.9555271962112455e-04 0.0000000000000000e+00  -5.8590979072561096e-05 -3.1026184049047609e-04 0.0000000000000000e+00  -5.9554269344268961e-05 -3.2521272779258473e-04 0.0000000000000000e+00  -6.0487465127788212e-05 -3.4039779819411620e-04 0.0000000000000000e+00  -6.1391044113407624e-05 -3.5580958778430984e-04 0.0000000000000000e+00  -6.2265483991415889e-05 -3.7144075207497685e-04 0.0000000000000000e+00  -6.3111262452101839e-05 -3.8728406600049988e-04 0.0000000000000000e+00  -6.3928857185754183e-05 -4.0333242391783498e-04 0.0000000000000000e+00  -6.4718745882661556e-05 -4.1957883960650947e-04 0.0000000000000000e+00  -6.5481406233112936e-05 -4.3601644626862455e-04 0.0000000000000000e+00  -6.6217315927396758e-05 -4.5263849652885118e-04 0.0000000000000000e+00  -6.6926952655801836e-05 -4.6943836243443395e-04 0.0000000000000000e+00  -6.7610794108616902e-05 -4.8640953545518907e-04 0.0000000000000000e+00  -6.8269317976130608e-05 -5.0354562648350558e-04 0.0000000000000000e+00  -6.8903001948631687e-05 -5.2084036583434367e-04 0.0000000000000000e+00  -6.9512323716408762e-05 -5.3828760324523656e-04 0.0000000000000000e+00  -7.0097760969750609e-05 -5.5588130787628906e-04 0.0000000000000000e+00  -7.0659791398945863e-05 -5.7361556831017906e-04 0.0000000000000000e+00  -7.1198892694283300e-05 -5.9148459255215576e-04 0.0000000000000000e+00  -7.1715542546051353e-05 -6.0948270803003993e-04 0.0000000000000000e+00  -7.2210218644538945e-05 -6.2760436159422638e-04 0.0000000000000000e+00  -7.2683398680034754e-05 -6.4584411951768114e-04 0.0000000000000000e+00  -7.3135560342827419e-05 -6.6419666749594202e-04 0.0000000000000000e+00  -7.3567181323205727e-05 -6.8265681064711868e-04 0.0000000000000000e+00  -7.3978739311458342e-05 -7.0121947351189430e-04 0.0000000000000000e+00  -7.4370711997873983e-05 -7.1987970005352316e-04 0.0000000000000000e+00  -7.4743577072741263e-05 -7.3863265365783166e-04 0.0000000000000000e+00  -7.5097812226349088e-05 -7.5747361713321979e-04 0.0000000000000000e+00  -7.5433895148985827e-05 -7.7639799271065691e-04 0.0000000000000000e+00  -7.5752303530940497e-05 -7.9540130204369024e-04 0.0000000000000000e+00  -7.6053515062501776e-05 -8.1447918620843203e-04 0.0000000000000000e+00  -7.6338007433958234e-05 -8.3362740570356989e-04 0.0000000000000000e+00  -7.6606258335598767e-05 -8.5284184045036470e-04 0.0000000000000000e+00  -7.6858745457712244e-05 -8.7211848979264900e-04 0.0000000000000000e+00  -7.7095946490587233e-05 -8.9145347249682612e-04 0.0000000000000000e+00  -7.7318339124512401e-05 -9.1084302675187236e-04 0.0000000000000000e+00  -7.7526401049776426e-05 -9.3028351016933631e-04 0.0000000000000000e+00  -7.7720609956668434e-05 -9.4977139978333998e-04 0.0000000000000000e+00  -7.7901443535477414e-05 -9.6930329205057310e-04 0.0000000000000000e+00  -7.8069379476492805e-05 -9.8887590285030164e-04 0.0000000000000000e+00  -7.8224895470004667e-05 -1.0084860674843597e-03 0.0000000000000000e+00  -7.8368469206303848e-05 -1.0281307406771608e-03 0.0000000000000000e+00  -7.8500578375680855e-05 -1.0478069965756934e-03 0.0000000000000000e+00  -7.8621700668424815e-05 -1.0675120287495440e-03 0.0000000000000000e+00  -7.8732313774813916e-05 -1.0872431501909225e-03 0.0000000000000000e+00  -7.8832895385095271e-05 -1.1069977933147351e-03 0.0000000000000000e+00  -7.8923923189434312e-05 -1.1267735099587046e-03 0.0000000000000000e+00  -7.9005874877808945e-05 -1.1465679713835730e-03 0.0000000000000000e+00  -7.9079228139803550e-05 -1.1663789682733530e-03 0.0000000000000000e+00  -7.9144460664257689e-05 -1.1862044107354358e-03 0.0000000000000000e+00  -7.9202050138772750e-05 -1.2060423282998748e-03 0.0000000000000000e+00  -7.9252474249306621e-05 -1.2258908699159987e-03 0.0000000000000000e+00  -7.9296210680771705e-05 -1.2457483039418626e-03 0.0000000000000000e+00  -7.9333737121321874e-05 -1.2656130181167740e-03 0.0000000000000000e+00  -7.9365531277073397e-05 -1.2854835194975351e-03 0.0000000000000000e+00  -7.9392070912493476e-05 -1.3053584343242063e-03 0.0000000000000000e+00  -7.9413833947670259e-05 -1.3252365077643087e-03 0.0000000000000000e+00  -7.9431298670022219e-05 -1.3451166034836365e-03 0.0000000000000000e+00  -7.9444944151836405e-05 -1.3649977030654927e-03 0.0000000000000000e+00  -7.9455250980782615e-05 -1.3848789056054667e-03 0.0000000000000000e+00  -7.9462702313791873e-05 -1.4047594287228114e-03 0.0000000000000000e+00  -7.9467784789199111e-05 -1.4246386146086303e-03 0.0000000000000000e+00  -7.9470987405384422e-05 -1.4445159503327463e-03 0.0000000000000000e+00  -7.9472793772937341e-05 -1.4643911240354393e-03 0.0000000000000000e+00  -7.9473666672182495e-05 -1.4842641591615816e-03 0.0000000000000000e+00  -7.9474093121773833e-05 -1.5041356792443710e-03 0.0000000000000000e+00  0.0000000000000000e+00 0.0000000000000000e+00 0.0000000000000000e+00  -1.5572372261661513e-06 -5.2253635869544935e-07 0.0000000000000000e+00  -3.2353960498148698e-06 -1.7469284586314267e-06 0.0000000000000000e+00  -4.9566493706529941e-06 -3.5212601118473793e-06 0.0000000000000000e+00  -6.6452992094354915e-06 -5.8126972109006502e-06 0.0000000000000000e+00  -8.2928696774498175e-06 -8.6344469857757589e-06 0.0000000000000000e+00  -9.9005956559844519e-06 -1.1985376777200502e-05 0.0000000000000000e+00  -1.1471132792134398e-05 -1.5859055136821749e-05 0.0000000000000000e+00  -1.3006483144356117e-05 -2.0245945979904256e-05 0.0000000000000000e+00  -1.4507970358927848e-05 -2.5135459021846590e-05 0.0000000000000000e+00  -1.5976456536735198e-05 -3.0516709869340105e-05 0.0000000000000000e+00  -1.7412539984801263e-05 -3.6378832970379673e-05 0.0000000000000000e+00  -1.8816683278504432e-05 -4.2711079065506514e-05 0.0000000000000000e+00  -2.0189285279957256e-05 -4.9502837710371111e-05 0.0000000000000000e+00  -2.1530717641967782e-05 -5.6743635704197374e-05 0.0000000000000000e+00  -2.2841341681350755e-05 -6.4423130929665062e-05 0.0000000000000000e+00  -2.4121515452488243e-05 -7.2531107188703836e-05 0.0000000000000000e+00  -2.5371596363896035e-05 -8.1057470948987890e-05 0.0000000000000000e+00  -2.6591941963032697e-05 -8.9992249571227117e-05 0.0000000000000000e+00  -2.7782910063052277e-05 -9.9325590440237232e-05 0.0000000000000000e+00  -2.8944858683832114e-05 -1.0904776057793553e-04 0.0000000000000000e+00  -3.0078145971526091e-05 -1.1914914648841247e-04 0.0000000000000000e+00  -3.1183130139681681e-05 -1.2962025410449252e-04 0.0000000000000000e+00  -3.2260169434316620e-05 -1.4045170877400296e-04 0.0000000000000000e+00  -3.3309622115656010e-05 -1.5163425525923545e-04 0.0000000000000000e+00  -3.4331846449487034e-05 -1.6315875773947563e-04 0.0000000000000000e+00  -3.5327200703446737e-05 -1.7501619981337963e-04 0.0000000000000000e+00  -3.6296043145603795e-05 -1.8719768450054148e-04 0.0000000000000000e+00  -3.7238732044006520e-05 -1.9969443424236951e-04 0.0000000000000000e+00  -3.8155625666590385e-05 -2.1249779090252738e-04 0.0000000000000000e+00  -3.9047082281194642e-05 -2.2559921576713308e-04 0.0000000000000000e+00  -3.9913460155597331e-05 -2.3899028954484187e-04 0.0000000000000000e+00  -4.0755117557543017e-05 -2.5266271236687552e-04 0.0000000000000000e+00  -4.1572412754759693e-05 -2.6660830378703052e-04 0.0000000000000000e+00  -4.2365704014967998e-05 -2.8081900278167926e-04 0.0000000000000000e+00  -4.3135349605885683e-05 -2.9528686774976892e-04 0.0000000000000000e+00  -4.3881707795229391e-05 -3.1000407651282115e-04 0.0000000000000000e+00  -4.4605136850715571e-05 -3.2496292631492942e-04 0.0000000000000000e+00  -4.5305995040060636e-05 -3.4015583382276005e-04 0.0000000000000000e+00  -4.5984640630980941e-05 -3.5557533512555194e-04 0.0000000000000000e+00  -4.6641431891193012e-05 -3.7121408573511625e-04 0.0000000000000000e+00  -4.7276727088413416e-05 -3.8706486058583605e-04 0.0000000000000000e+00  -4.7890884490358515e-05 -4.0312055403466708e-04 0.0000000000000000e+00  -4.8484262364744857e-05 -4.1937417986113697e-04 0.0000000000000000e+00  -4.9057218979289137e-05 -4.3581887126734623e-04 0.0000000000000000e+00  -4.9610112601707893e-05 -4.5244788087796646e-04 0.0000000000000000e+00  -5.0143301499717564e-05 -4.6925458074024198e-04 0.0000000000000000e+00  -5.0657143941034588e-05 -4.8623246232398944e-04 0.0000000000000000e+00  -5.1151998193375706e-05 -5.0337513652159689e-04 0.0000000000000000e+00  -5.1628222524457392e-05 -5.2067633364802552e-04 0.0000000000000000e+00  -5.2086175201996109e-05 -5.3812990344080788e-04 0.0000000000000000e+00  -5.2526214493708370e-05 -5.5572981506004943e-04 0.0000000000000000e+00  -5.2948698667310599e-05 -5.7347015708842763e-04 0.0000000000000000e+00  -5.3353985990519451e-05 -5.9134513753119147e-04 0.0000000000000000e+00  -5.3742434731051377e-05 -6.0934908381616248e-04 0.0000000000000000e+00  -5.4114403156622755e-05 -6.2747644279373481e-04 0.0000000000000000e+00  -5.4470249534950359e-05 -6.4572178073687416e-04 0.0000000000000000e+00  -5.4810332133750778e-05 -6.6407978334111933e-04 0.0000000000000000e+00  -5.5135009220740362e-05 -6.8254525572457932e-04 0.0000000000000000e+00  -5.5444639063635818e-05 -7.0111312242793764e-04 0.0000000000000000e+00  -5.5739579930153544e-05 -7.1977842741444793e-04 0.0000000000000000e+00  -5.6020190088009991e-05 -7.3853633406993776e-04 0.0000000000000000e+00  -5.6286827804921788e-05 -7.5738212520280561e-04 0.0000000000000000e+00  -5.6539851348605276e-05 -7.7631120304402312e-04 0.0000000000000000e+00  -5.6779618986777063e-05 -7.9531908924713459e-04 0.0000000000000000e+00  -5.7006488987154021e-05 -8.1440142488825400e-04 0.0000000000000000e+00  -5.7220819617452403e-05 -8.3355397046606927e-04 0.0000000000000000e+00  -5.7422969145388819e-05 -8.5277260590184022e-04 0.0000000000000000e+00  -5.7613295838679914e-05 -8.7205333053939969e-04 0.0000000000000000e+00  -5.7792157965042344e-05 -8.9139226314515147e-04 0.0000000000000000e+00  -5.7959913792192344e-05 -9.1078564190807184e-04 0.0000000000000000e+00  -5.8116921587846337e-05 -9.3022982443970983e-04 0.0000000000000000e+00  -5.8263539619720843e-05 -9.4972128777418593e-04 0.0000000000000000e+00  -5.8400126155531601e-05 -9.6925662836819259e-04 0.0000000000000000e+00  -5.8527039462994088e-05 -9